   1   1   1   0
  0.2957216E+01  0.1435361E-09  0.1435361E-09  0.1435361E-09  0.5000000E-15
  1.000000000000000E-004
  CAR 
 jump2                                   
    226.59793410    -25.04138939 2001     -5.28377063      1.00000000
    -25.041  0.0000E+00  0.0000E+00
    -24.916  0.0000E+00  0.0000E+00
    -24.790  0.0000E+00  0.0000E+00
    -24.664  0.0000E+00  0.0000E+00
    -24.538  0.0000E+00  0.0000E+00
    -24.412  0.0000E+00  0.0000E+00
    -24.286  0.0000E+00  0.0000E+00
    -24.161  0.0000E+00  0.0000E+00
    -24.035  0.0000E+00  0.0000E+00
    -23.909  0.0000E+00  0.0000E+00
    -23.783  0.0000E+00  0.0000E+00
    -23.657  0.0000E+00  0.0000E+00
    -23.532  0.0000E+00  0.0000E+00
    -23.406  0.0000E+00  0.0000E+00
    -23.280  0.0000E+00  0.0000E+00
    -23.154  0.0000E+00  0.0000E+00
    -23.028  0.0000E+00  0.0000E+00
    -22.902  0.0000E+00  0.0000E+00
    -22.777  0.0000E+00  0.0000E+00
    -22.651  0.0000E+00  0.0000E+00
    -22.525  0.0000E+00  0.0000E+00
    -22.399  0.0000E+00  0.0000E+00
    -22.273  0.0000E+00  0.0000E+00
    -22.148  0.0000E+00  0.0000E+00
    -22.022  0.0000E+00  0.0000E+00
    -21.896  0.0000E+00  0.0000E+00
    -21.770  0.0000E+00  0.0000E+00
    -21.644  0.0000E+00  0.0000E+00
    -21.518  0.0000E+00  0.0000E+00
    -21.393  0.0000E+00  0.0000E+00
    -21.267  0.0000E+00  0.0000E+00
    -21.141  0.0000E+00  0.0000E+00
    -21.015  0.0000E+00  0.0000E+00
    -20.889  0.0000E+00  0.0000E+00
    -20.764  0.0000E+00  0.0000E+00
    -20.638  0.0000E+00  0.0000E+00
    -20.512  0.0000E+00  0.0000E+00
    -20.386  0.0000E+00  0.0000E+00
    -20.260  0.0000E+00  0.0000E+00
    -20.134  0.0000E+00  0.0000E+00
    -20.009  0.0000E+00  0.0000E+00
    -19.883  0.0000E+00  0.0000E+00
    -19.757  0.0000E+00  0.0000E+00
    -19.631  0.0000E+00  0.0000E+00
    -19.505  0.0000E+00  0.0000E+00
    -19.380  0.0000E+00  0.0000E+00
    -19.254  0.0000E+00  0.0000E+00
    -19.128  0.0000E+00  0.0000E+00
    -19.002  0.0000E+00  0.0000E+00
    -18.876  0.0000E+00  0.0000E+00
    -18.750  0.0000E+00  0.0000E+00
    -18.625  0.0000E+00  0.0000E+00
    -18.499  0.0000E+00  0.0000E+00
    -18.373  0.0000E+00  0.0000E+00
    -18.247  0.0000E+00  0.0000E+00
    -18.121  0.0000E+00  0.0000E+00
    -17.995  0.0000E+00  0.0000E+00
    -17.870  0.0000E+00  0.0000E+00
    -17.744  0.0000E+00  0.0000E+00
    -17.618  0.0000E+00  0.0000E+00
    -17.492  0.0000E+00  0.0000E+00
    -17.366  0.0000E+00  0.0000E+00
    -17.241  0.0000E+00  0.0000E+00
    -17.115  0.0000E+00  0.0000E+00
    -16.989  0.0000E+00  0.0000E+00
    -16.863  0.0000E+00  0.0000E+00
    -16.737  0.0000E+00  0.0000E+00
    -16.611  0.0000E+00  0.0000E+00
    -16.486  0.0000E+00  0.0000E+00
    -16.360  0.0000E+00  0.0000E+00
    -16.234  0.0000E+00  0.0000E+00
    -16.108  0.0000E+00  0.0000E+00
    -15.982  0.0000E+00  0.0000E+00
    -15.857  0.0000E+00  0.0000E+00
    -15.731  0.0000E+00  0.0000E+00
    -15.605  0.0000E+00  0.0000E+00
    -15.479  0.0000E+00  0.0000E+00
    -15.353  0.0000E+00  0.0000E+00
    -15.227  0.0000E+00  0.0000E+00
    -15.102  0.0000E+00  0.0000E+00
    -14.976  0.0000E+00  0.0000E+00
    -14.850  0.0000E+00  0.0000E+00
    -14.724  0.0000E+00  0.0000E+00
    -14.598  0.0000E+00  0.0000E+00
    -14.473  0.0000E+00  0.0000E+00
    -14.347  0.0000E+00  0.0000E+00
    -14.221  0.0000E+00  0.0000E+00
    -14.095  0.1394E-11  0.1754E-12
    -13.969  0.8995E-07  0.1132E-07
    -13.843  0.2714E-03  0.3416E-04
    -13.718  0.4283E-01  0.5423E-02
    -13.592  0.4939E+00  0.6757E-01
    -13.466  0.8033E+00  0.1686E+00
    -13.340  0.2700E+00  0.2026E+00
    -13.214  0.3697E+00  0.2491E+00
    -13.089  0.3730E+00  0.2961E+00
    -12.963  0.3147E-01  0.3000E+00
    -12.837  0.4526E-01  0.3057E+00
    -12.711  0.4150E+00  0.3579E+00
    -12.585  0.3154E+00  0.3976E+00
    -12.459  0.1892E-01  0.4000E+00
    -12.334  0.8742E-04  0.4000E+00
    -12.208  0.8971E-02  0.4011E+00
    -12.082  0.2361E+00  0.4308E+00
    -11.956  0.4698E+00  0.4900E+00
    -11.830  0.7895E-01  0.4999E+00
    -11.705  0.8839E-03  0.5000E+00
    -11.579  0.5243E-06  0.5000E+00
    -11.453  0.2101E-04  0.5000E+00
    -11.327  0.9368E-02  0.5012E+00
    -11.201  0.2404E+00  0.5314E+00
    -11.075  0.4675E+00  0.5902E+00
    -10.950  0.7670E-01  0.5999E+00
    -10.824  0.8363E-03  0.6000E+00
    -10.698  0.4801E-06  0.6000E+00
    -10.572  0.3315E-10  0.6000E+00
    -10.446  0.6641E-06  0.6000E+00
    -10.320  0.1037E-02  0.6001E+00
    -10.195  0.8574E-01  0.6109E+00
    -10.069  0.4762E+00  0.6708E+00
     -9.943  0.2239E+00  0.6990E+00
     -9.817  0.7900E-02  0.7000E+00
     -9.691  0.1591E-04  0.7000E+00
     -9.566  0.1567E-08  0.7000E+00
     -9.440  0.7103E-14  0.7000E+00
     -9.314  0.2762E-10  0.7000E+00
     -9.188  0.8393E-06  0.7000E+00
     -9.062  0.1210E-02  0.7002E+00
     -8.936  0.9279E-01  0.7118E+00
     -8.811  0.4817E+00  0.7724E+00
     -8.685  0.2121E+00  0.7991E+00
     -8.559  0.6960E-02  0.8000E+00
     -8.433  0.1296E-04  0.8000E+00
     -8.307  0.1177E-08  0.8000E+00
     -8.182  0.4941E-14  0.8000E+00
     -8.056  0.0000E+00  0.8000E+00
     -7.930  0.8965E-13  0.8000E+00
     -7.804  0.1114E-07  0.8000E+00
     -7.678  0.6383E-04  0.8000E+00
     -7.552  0.1825E-01  0.8023E+00
     -7.427  0.3113E+00  0.8415E+00
     -7.301  0.4183E+00  0.8941E+00
     -7.175  0.4648E-01  0.9000E+00
     -7.049  0.3287E-03  0.9000E+00
     -6.923  0.1196E-06  0.9000E+00
     -6.798  0.2035E-11  0.9000E+00
     -6.672  0.0000E+00  0.9000E+00
     -6.546  0.0000E+00  0.9000E+00
     -6.420  0.0000E+00  0.9000E+00
     -6.294  0.3159E-12  0.9000E+00
     -6.168  0.2916E-07  0.9000E+00
     -6.043  0.1248E-03  0.9000E+00
     -5.917  0.2696E-01  0.9034E+00
     -5.791  0.3562E+00  0.9482E+00
     -5.665  0.3786E+00  0.9959E+00
     -5.539  0.3272E-01  0.1000E+01
     -5.414  0.1753E-03  0.1000E+01
     -5.288  0.4769E-07  0.1000E+01
     -5.162  0.6033E-12  0.1000E+01
     -5.036  0.0000E+00  0.1000E+01
     -4.910  0.0000E+00  0.1000E+01
     -4.784  0.0000E+00  0.1000E+01
     -4.659  0.0000E+00  0.1000E+01
     -4.533  0.5383E-14  0.1000E+01
     -4.407  0.1271E-08  0.1000E+01
     -4.281  0.1370E-04  0.1000E+01
     -4.155  0.7202E-02  0.1001E+01
     -4.030  0.2153E+00  0.1028E+01
     -3.904  0.4803E+00  0.1088E+01
     -3.778  0.9086E-01  0.1100E+01
     -3.652  0.1161E-02  0.1100E+01
     -3.526  0.7883E-06  0.1100E+01
     -3.400  0.2537E-10  0.1100E+01
     -3.275  0.0000E+00  0.1100E+01
     -3.149  0.0000E+00  0.1100E+01
     -3.023  0.0000E+00  0.1100E+01
     -2.897  0.0000E+00  0.1100E+01
     -2.771  0.0000E+00  0.1100E+01
     -2.645  0.0000E+00  0.1100E+01
     -2.520  0.1374E-11  0.1100E+01
     -2.394  0.8892E-07  0.1100E+01
     -2.268  0.2686E-03  0.1100E+01
     -2.142  0.4157E-01  0.1105E+01
     -2.016  0.4060E+00  0.1156E+01
     -1.891  0.3261E+00  0.1197E+01
     -1.765  0.2078E-01  0.1200E+01
     -1.639  0.7967E-04  0.1200E+01
     -1.513  0.1529E-07  0.1200E+01
     -1.387  0.1355E-12  0.1200E+01
     -1.261  0.0000E+00  0.1200E+01
     -1.136  0.0000E+00  0.1200E+01
     -1.010  0.0000E+00  0.1200E+01
     -0.884  0.0000E+00  0.1200E+01
     -0.758  0.0000E+00  0.1200E+01
     -0.632  0.0000E+00  0.1200E+01
     -0.507  0.0000E+00  0.1200E+01
     -0.381  0.4573E-11  0.1200E+01
     -0.255  0.2198E-06  0.1200E+01
     -0.129  0.4960E-03  0.1200E+01
     -0.003  0.5815E-01  0.1207E+01
      0.123  0.4419E+00  0.1263E+01
      0.248  0.2804E+00  0.1298E+01
      0.374  0.1379E-01  0.1300E+01
      0.500  0.3985E-04  0.1300E+01
      0.626  0.5699E-08  0.1300E+01
      0.752  0.3750E-13  0.1300E+01
      0.877  0.0000E+00  0.1300E+01
      1.003  0.0000E+00  0.1300E+01
      1.129  0.0000E+00  0.1300E+01
      1.255  0.0000E+00  0.1300E+01
      1.381  0.0000E+00  0.1300E+01
      1.507  0.0000E+00  0.1300E+01
      1.632  0.0000E+00  0.1300E+01
      1.758  0.4412E-16  0.1300E+01
      1.884  0.3658E-10  0.1300E+01
      2.010  0.1033E-05  0.1300E+01
      2.136  0.1387E-02  0.1300E+01
      2.261  0.9944E-01  0.1313E+01
      2.387  0.4859E+00  0.1374E+01
      2.513  0.2018E+00  0.1399E+01
      2.639  0.6202E-02  0.1400E+01
      2.765  0.1076E-04  0.1400E+01
      2.891  0.9085E-09  0.1400E+01
      3.016  0.3530E-14  0.1400E+01
      3.142  0.0000E+00  0.1400E+01
      3.268  0.0000E+00  0.1400E+01
      3.394  0.0000E+00  0.1400E+01
      3.520  0.0000E+00  0.1400E+01
      3.645  0.0000E+00  0.1400E+01
      3.771  0.0000E+00  0.1400E+01
      3.897  0.0000E+00  0.1400E+01
      4.023  0.0000E+00  0.1400E+01
      4.149  0.6053E-13  0.1400E+01
      4.275  0.8240E-08  0.1400E+01
      4.400  0.5166E-04  0.1400E+01
      4.526  0.1610E-01  0.1402E+01
      4.652  0.2974E+00  0.1439E+01
      4.778  0.4294E+00  0.1493E+01
      4.904  0.5151E-01  0.1500E+01
      5.030  0.3965E-03  0.1500E+01
      5.155  0.1578E-06  0.1500E+01
      5.281  0.2940E-11  0.1500E+01
      5.407  0.0000E+00  0.1500E+01
      5.533  0.0000E+00  0.1500E+01
      5.659  0.0000E+00  0.1500E+01
      5.784  0.0000E+00  0.1500E+01
      5.910  0.0000E+00  0.1500E+01
      6.036  0.0000E+00  0.1500E+01
      6.162  0.0000E+00  0.1500E+01
      6.288  0.0000E+00  0.1500E+01
      6.414  0.0000E+00  0.1500E+01
      6.539  0.8733E-11  0.1500E+01
      6.665  0.3566E-06  0.1500E+01
      6.791  0.6860E-03  0.1500E+01
      6.917  0.6913E-01  0.1509E+01
      7.043  0.4584E+00  0.1566E+01
      7.168  0.2556E+00  0.1599E+01
      7.294  0.1090E-01  0.1600E+01
      7.420  0.2694E-04  0.1600E+01
      7.546  0.3279E-08  0.1600E+01
      7.672  0.1835E-13  0.1600E+01
      7.798  0.0000E+00  0.1600E+01
      7.923  0.0000E+00  0.1600E+01
      8.049  0.0000E+00  0.1600E+01
      8.175  0.0000E+00  0.1600E+01
      8.301  0.0000E+00  0.1600E+01
      8.427  0.0000E+00  0.1600E+01
      8.552  0.0000E+00  0.1600E+01
      8.678  0.1103E-14  0.1600E+01
      8.804  0.3667E-09  0.1600E+01
      8.930  0.5588E-05  0.1600E+01
      9.056  0.4112E-02  0.1601E+01
      9.182  0.1679E+00  0.1622E+01
      9.307  0.4957E+00  0.1684E+01
      9.433  0.1248E+00  0.1700E+01
      9.559  0.2195E-02  0.1700E+01
      9.685  0.2093E-05  0.1700E+01
      9.811  0.9539E-10  0.1700E+01
      9.936  0.1765E-15  0.1700E+01
     10.062  0.0000E+00  0.1700E+01
     10.188  0.0000E+00  0.1700E+01
     10.314  0.0000E+00  0.1700E+01
     10.440  0.0000E+00  0.1700E+01
     10.566  0.6177E-15  0.1700E+01
     10.691  0.2362E-09  0.1700E+01
     10.817  0.4060E-05  0.1700E+01
     10.943  0.3357E-02  0.1700E+01
     11.069  0.1529E+00  0.1720E+01
     11.195  0.4976E+00  0.1782E+01
     11.320  0.1382E+00  0.1800E+01
     11.446  0.2712E-02  0.1800E+01
     11.572  0.2908E-05  0.1800E+01
     11.698  0.1495E-09  0.1800E+01
     11.824  0.3971E-15  0.1800E+01
     11.950  0.2737E-10  0.1800E+01
     12.075  0.8339E-06  0.1800E+01
     12.201  0.1205E-02  0.1800E+01
     12.327  0.9259E-01  0.1812E+01
     12.453  0.4815E+00  0.1872E+01
     12.579  0.2125E+00  0.1899E+01
     12.705  0.1201E-01  0.1901E+01
     12.830  0.1840E+00  0.1924E+01
     12.956  0.4920E+00  0.1986E+01
     13.082  0.1121E+00  0.2000E+01
     13.208  0.1762E-02  0.2000E+01
     13.334  0.1492E-05  0.2000E+01
     13.459  0.6017E-10  0.2000E+01
     13.585  0.8824E-16  0.2000E+01
     13.711  0.0000E+00  0.2000E+01
     13.837  0.0000E+00  0.2000E+01
     13.963  0.0000E+00  0.2000E+01
     14.089  0.0000E+00  0.2000E+01
     14.214  0.0000E+00  0.2000E+01
     14.340  0.0000E+00  0.2000E+01
     14.466  0.0000E+00  0.2000E+01
     14.592  0.0000E+00  0.2000E+01
     14.718  0.0000E+00  0.2000E+01
     14.843  0.0000E+00  0.2000E+01
     14.969  0.0000E+00  0.2000E+01
     15.095  0.0000E+00  0.2000E+01
     15.221  0.0000E+00  0.2000E+01
     15.347  0.0000E+00  0.2000E+01
     15.473  0.0000E+00  0.2000E+01
     15.598  0.0000E+00  0.2000E+01
     15.724  0.0000E+00  0.2000E+01
     15.850  0.0000E+00  0.2000E+01
     15.976  0.0000E+00  0.2000E+01
     16.102  0.0000E+00  0.2000E+01
     16.227  0.0000E+00  0.2000E+01
     16.353  0.0000E+00  0.2000E+01
     16.479  0.0000E+00  0.2000E+01
     16.605  0.0000E+00  0.2000E+01
     16.731  0.0000E+00  0.2000E+01
     16.857  0.0000E+00  0.2000E+01
     16.982  0.0000E+00  0.2000E+01
     17.108  0.0000E+00  0.2000E+01
     17.234  0.0000E+00  0.2000E+01
     17.360  0.0000E+00  0.2000E+01
     17.486  0.0000E+00  0.2000E+01
     17.611  0.0000E+00  0.2000E+01
     17.737  0.0000E+00  0.2000E+01
     17.863  0.0000E+00  0.2000E+01
     17.989  0.0000E+00  0.2000E+01
     18.115  0.0000E+00  0.2000E+01
     18.241  0.0000E+00  0.2000E+01
     18.366  0.0000E+00  0.2000E+01
     18.492  0.0000E+00  0.2000E+01
     18.618  0.0000E+00  0.2000E+01
     18.744  0.0000E+00  0.2000E+01
     18.870  0.0000E+00  0.2000E+01
     18.995  0.0000E+00  0.2000E+01
     19.121  0.0000E+00  0.2000E+01
     19.247  0.0000E+00  0.2000E+01
     19.373  0.0000E+00  0.2000E+01
     19.499  0.0000E+00  0.2000E+01
     19.625  0.0000E+00  0.2000E+01
     19.750  0.0000E+00  0.2000E+01
     19.876  0.0000E+00  0.2000E+01
     20.002  0.0000E+00  0.2000E+01
     20.128  0.0000E+00  0.2000E+01
     20.254  0.0000E+00  0.2000E+01
     20.380  0.0000E+00  0.2000E+01
     20.505  0.0000E+00  0.2000E+01
     20.631  0.0000E+00  0.2000E+01
     20.757  0.0000E+00  0.2000E+01
     20.883  0.0000E+00  0.2000E+01
     21.009  0.0000E+00  0.2000E+01
     21.134  0.0000E+00  0.2000E+01
     21.260  0.0000E+00  0.2000E+01
     21.386  0.0000E+00  0.2000E+01
     21.512  0.0000E+00  0.2000E+01
     21.638  0.0000E+00  0.2000E+01
     21.764  0.0000E+00  0.2000E+01
     21.889  0.0000E+00  0.2000E+01
     22.015  0.0000E+00  0.2000E+01
     22.141  0.0000E+00  0.2000E+01
     22.267  0.0000E+00  0.2000E+01
     22.393  0.0000E+00  0.2000E+01
     22.518  0.0000E+00  0.2000E+01
     22.644  0.0000E+00  0.2000E+01
     22.770  0.0000E+00  0.2000E+01
     22.896  0.0000E+00  0.2000E+01
     23.022  0.0000E+00  0.2000E+01
     23.148  0.2822E-11  0.2000E+01
     23.273  0.1530E-06  0.2000E+01
     23.399  0.3884E-03  0.2000E+01
     23.525  0.5108E-01  0.2006E+01
     23.651  0.4585E+00  0.2064E+01
     23.777  0.6687E+00  0.2148E+01
     23.902  0.4018E+00  0.2199E+01
     24.028  0.3518E+00  0.2243E+01
     24.154  0.4142E+00  0.2295E+01
     24.280  0.2261E+00  0.2324E+01
     24.406  0.4924E+00  0.2386E+01
     24.532  0.1125E+00  0.2400E+01
     24.657  0.1775E-02  0.2400E+01
     24.783  0.7583E-05  0.2400E+01
     24.909  0.4347E-02  0.2401E+01
     25.035  0.1789E+00  0.2423E+01
     25.161  0.7066E+00  0.2512E+01
     25.286  0.6033E+00  0.2588E+01
     25.412  0.9516E-01  0.2600E+01
     25.538  0.1219E-02  0.2600E+01
     25.664  0.8603E-06  0.2600E+01
     25.790  0.8653E-04  0.2600E+01
     25.916  0.2914E-01  0.2604E+01
     26.041  0.6038E+00  0.2680E+01
     26.167  0.1259E+01  0.2838E+01
     26.293  0.6690E+00  0.2922E+01
     26.419  0.7060E+00  0.3011E+01
     26.545  0.5954E+00  0.3086E+01
     26.670  0.1099E+00  0.3100E+01
     26.796  0.6541E-02  0.3101E+01
     26.922  0.1817E+00  0.3123E+01
     27.048  0.4926E+00  0.3185E+01
     27.174  0.1138E+00  0.3200E+01
     27.300  0.1816E-02  0.3200E+01
     27.425  0.1419E-03  0.3200E+01
     27.551  0.3552E-01  0.3204E+01
     27.677  0.5917E+00  0.3279E+01
     27.803  0.8498E+00  0.3386E+01
     27.929  0.1113E+00  0.3400E+01
     28.055  0.1044E-02  0.3400E+01
     28.180  0.5552E-06  0.3400E+01
     28.306  0.2265E-04  0.3400E+01
     28.432  0.9806E-02  0.3401E+01
     28.558  0.2449E+00  0.3432E+01
     28.684  0.4649E+00  0.3491E+01
     28.809  0.7437E-01  0.3500E+01
     28.935  0.7882E-03  0.3500E+01
     29.061  0.7749E-04  0.3500E+01
     29.187  0.2038E-01  0.3503E+01
     29.313  0.3239E+00  0.3543E+01
     29.439  0.4079E+00  0.3595E+01
     29.564  0.6220E-01  0.3602E+01
     29.690  0.3215E+00  0.3643E+01
     29.816  0.4102E+00  0.3695E+01
     29.942  0.4317E-01  0.3700E+01
     30.068  0.2874E-03  0.3700E+01
     30.193  0.9821E-07  0.3700E+01
     30.319  0.1567E-11  0.3700E+01
     30.445  0.2206E-15  0.3700E+01
     30.571  0.1124E-09  0.3700E+01
     30.697  0.2361E-05  0.3700E+01
     30.823  0.2385E-02  0.3700E+01
     30.948  0.1367E+00  0.3717E+01
     31.074  0.7099E+00  0.3807E+01
     31.200  0.6435E+00  0.3888E+01
     31.326  0.9588E-01  0.3900E+01
     31.452  0.1196E-02  0.3900E+01
     31.577  0.8201E-06  0.3900E+01
     31.703  0.2675E-10  0.3900E+01
     31.829  0.0000E+00  0.3900E+01
     31.955  0.1324E-15  0.3900E+01
     32.081  0.6195E-10  0.3900E+01
     32.207  0.1524E-05  0.3900E+01
     32.332  0.1787E-02  0.3900E+01
     32.458  0.1129E+00  0.3914E+01
     32.584  0.4923E+00  0.3976E+01
     32.710  0.1829E+00  0.3999E+01
     32.836  0.5040E-02  0.4000E+01
     32.961  0.1991E-01  0.4003E+01
     33.087  0.3212E+00  0.4043E+01
     33.213  0.4102E+00  0.4095E+01
     33.339  0.4317E-01  0.4100E+01
     33.465  0.2875E-03  0.4100E+01
     33.591  0.9823E-07  0.4100E+01
     33.716  0.1579E-11  0.4100E+01
     33.842  0.2312E-08  0.4100E+01
     33.968  0.2103E-04  0.4100E+01
     34.094  0.9468E-02  0.4101E+01
     34.220  0.2643E+00  0.4134E+01
     34.345  0.8098E+00  0.4236E+01
     34.471  0.4683E+00  0.4295E+01
     34.597  0.3747E-01  0.4300E+01
     34.723  0.2146E-03  0.4300E+01
     34.849  0.6551E-07  0.4300E+01
     34.975  0.1663E-04  0.4300E+01
     35.100  0.8117E-02  0.4301E+01
     35.226  0.2265E+00  0.4330E+01
     35.352  0.4749E+00  0.4389E+01
     35.478  0.8428E-01  0.4400E+01
     35.604  0.1003E-02  0.4400E+01
     35.730  0.6314E-06  0.4400E+01
     35.855  0.2596E-05  0.4400E+01
     35.981  0.2522E-02  0.4400E+01
     36.107  0.1335E+00  0.4417E+01
     36.233  0.4971E+00  0.4480E+01
     36.359  0.1580E+00  0.4500E+01
     36.484  0.3604E-02  0.4500E+01
     36.610  0.4537E-05  0.4500E+01
     36.736  0.2752E-09  0.4500E+01
     36.862  0.7059E-15  0.4500E+01
     36.988  0.0000E+00  0.4500E+01
     37.114  0.4846E-11  0.4500E+01
     37.239  0.2296E-06  0.4500E+01
     37.365  0.5107E-03  0.4500E+01
     37.491  0.5907E-01  0.4507E+01
     37.617  0.4434E+00  0.4563E+01
     37.743  0.2782E+00  0.4598E+01
     37.868  0.1351E-01  0.4600E+01
     37.994  0.4606E-04  0.4600E+01
     38.120  0.4976E-02  0.4601E+01
     38.246  0.1831E+00  0.4624E+01
     38.372  0.4922E+00  0.4686E+01
     38.498  0.1127E+00  0.4700E+01
     38.623  0.1783E-02  0.4700E+01
     38.749  0.1518E-05  0.4700E+01
     38.875  0.6164E-10  0.4700E+01
     39.001  0.1765E-15  0.4700E+01
     39.127  0.0000E+00  0.4700E+01
     39.252  0.0000E+00  0.4700E+01
     39.378  0.0000E+00  0.4700E+01
     39.504  0.0000E+00  0.4700E+01
     39.630  0.1507E-10  0.4700E+01
     39.756  0.5355E-06  0.4700E+01
     39.882  0.8991E-03  0.4700E+01
     40.007  0.7965E-01  0.4710E+01
     40.133  0.4705E+00  0.4769E+01
     40.259  0.2348E+00  0.4799E+01
     40.385  0.9188E-02  0.4800E+01
     40.511  0.4711E-01  0.4806E+01
     40.636  0.4197E+00  0.4859E+01
     40.762  0.3096E+00  0.4898E+01
     40.888  0.1797E-01  0.4900E+01
     41.014  0.6218E-04  0.4900E+01
     41.140  0.1073E-07  0.4900E+01
     41.266  0.8542E-13  0.4900E+01
     41.391  0.0000E+00  0.4900E+01
     41.517  0.0000E+00  0.4900E+01
     41.643  0.0000E+00  0.4900E+01
     41.769  0.0000E+00  0.4900E+01
     41.895  0.0000E+00  0.4900E+01
     42.020  0.0000E+00  0.4900E+01
     42.146  0.3566E-12  0.4900E+01
     42.272  0.3198E-07  0.4900E+01
     42.398  0.1331E-03  0.4900E+01
     42.524  0.2797E-01  0.4904E+01
     42.650  0.3604E+00  0.4949E+01
     42.775  0.3745E+00  0.4996E+01
     42.901  0.3179E-01  0.5000E+01
     43.027  0.3613E-01  0.5005E+01
     43.153  0.3895E+00  0.5054E+01
     43.279  0.3446E+00  0.5097E+01
     43.405  0.2440E-01  0.5100E+01
     43.530  0.1050E-03  0.5100E+01
     43.656  0.2273E-07  0.5100E+01
     43.782  0.2277E-12  0.5100E+01
     43.908  0.0000E+00  0.5100E+01
     44.034  0.0000E+00  0.5100E+01
     44.159  0.0000E+00  0.5100E+01
     44.285  0.0000E+00  0.5100E+01
     44.411  0.0000E+00  0.5100E+01
     44.537  0.0000E+00  0.5100E+01
     44.663  0.1765E-15  0.5100E+01
     44.789  0.8172E-10  0.5100E+01
     44.914  0.1868E-05  0.5100E+01
     45.040  0.2039E-02  0.5100E+01
     45.166  0.1204E+00  0.5115E+01
     45.292  0.4947E+00  0.5178E+01
     45.418  0.1732E+00  0.5199E+01
     45.543  0.4403E-02  0.5200E+01
     45.669  0.8640E-03  0.5200E+01
     45.795  0.7773E-01  0.5210E+01
     45.921  0.4686E+00  0.5269E+01
     46.047  0.2384E+00  0.5299E+01
     46.173  0.9185E-02  0.5300E+01
     46.298  0.2034E-04  0.5300E+01
     46.424  0.2210E-08  0.5300E+01
     46.550  0.1094E-13  0.5300E+01
     46.676  0.0000E+00  0.5300E+01
     46.802  0.0000E+00  0.5300E+01
     46.927  0.0000E+00  0.5300E+01
     47.053  0.8383E-15  0.5300E+01
     47.179  0.2997E-09  0.5300E+01
     47.305  0.4827E-05  0.5300E+01
     47.431  0.3748E-02  0.5300E+01
     47.557  0.1609E+00  0.5321E+01
     47.682  0.4968E+00  0.5383E+01
     47.808  0.1309E+00  0.5400E+01
     47.934  0.2421E-02  0.5400E+01
     48.060  0.2436E-05  0.5400E+01
     48.186  0.1174E-09  0.5400E+01
     48.311  0.5757E-12  0.5400E+01
     48.437  0.4601E-07  0.5400E+01
     48.563  0.1710E-03  0.5400E+01
     48.689  0.3227E-01  0.5404E+01
     48.815  0.3770E+00  0.5452E+01
     48.941  0.3579E+00  0.5497E+01
     49.066  0.2735E-01  0.5500E+01
     49.192  0.3737E-03  0.5500E+01
     49.318  0.3956E-01  0.5505E+01
     49.444  0.4004E+00  0.5555E+01
     49.570  0.3325E+00  0.5597E+01
     49.695  0.2198E-01  0.5600E+01
     49.821  0.8961E-04  0.5600E+01
     49.947  0.2075E-02  0.5600E+01
     50.073  0.1215E+00  0.5616E+01
     50.199  0.4949E+00  0.5678E+01
     50.325  0.1720E+00  0.5699E+01
     50.450  0.4332E-02  0.5700E+01
     50.576  0.6070E-05  0.5700E+01
     50.702  0.4110E-09  0.5700E+01
     50.828  0.1235E-14  0.5700E+01
     50.954  0.0000E+00  0.5700E+01
     51.080  0.0000E+00  0.5700E+01
     51.205  0.0000E+00  0.5700E+01
     51.331  0.0000E+00  0.5700E+01
     51.457  0.3411E-11  0.5700E+01
     51.583  0.1764E-06  0.5700E+01
     51.709  0.4276E-03  0.5700E+01
     51.834  0.5367E-01  0.5707E+01
     51.960  0.4337E+00  0.5761E+01
     52.086  0.2917E+00  0.5798E+01
     52.212  0.1530E-01  0.5800E+01
     52.338  0.4738E-04  0.5800E+01
     52.464  0.7285E-08  0.5800E+01
     52.589  0.5153E-13  0.5800E+01
     52.715  0.0000E+00  0.5800E+01
     52.841  0.0000E+00  0.5800E+01
     52.967  0.0000E+00  0.5800E+01
     53.093  0.0000E+00  0.5800E+01
     53.218  0.0000E+00  0.5800E+01
     53.344  0.0000E+00  0.5800E+01
     53.470  0.0000E+00  0.5800E+01
     53.596  0.0000E+00  0.5800E+01
     53.722  0.0000E+00  0.5800E+01
     53.848  0.0000E+00  0.5800E+01
     53.973  0.0000E+00  0.5800E+01
     54.099  0.0000E+00  0.5800E+01
     54.225  0.0000E+00  0.5800E+01
     54.351  0.0000E+00  0.5800E+01
     54.477  0.0000E+00  0.5800E+01
     54.602  0.0000E+00  0.5800E+01
     54.728  0.3296E-13  0.5800E+01
     54.854  0.5163E-08  0.5800E+01
     54.980  0.3716E-04  0.5800E+01
     55.106  0.1323E-01  0.5802E+01
     55.232  0.2759E+00  0.5836E+01
     55.357  0.4450E+00  0.5892E+01
     55.483  0.6002E-01  0.5900E+01
     55.609  0.5261E-03  0.5900E+01
     55.735  0.2400E-06  0.5900E+01
     55.861  0.5141E-11  0.5900E+01
     55.986  0.0000E+00  0.5900E+01
     56.112  0.0000E+00  0.5900E+01
     56.238  0.0000E+00  0.5900E+01
     56.364  0.0000E+00  0.5900E+01
     56.490  0.0000E+00  0.5900E+01
     56.616  0.0000E+00  0.5900E+01
     56.741  0.0000E+00  0.5900E+01
     56.867  0.0000E+00  0.5900E+01
     56.993  0.0000E+00  0.5900E+01
     57.119  0.0000E+00  0.5900E+01
     57.245  0.0000E+00  0.5900E+01
     57.370  0.0000E+00  0.5900E+01
     57.496  0.0000E+00  0.5900E+01
     57.622  0.0000E+00  0.5900E+01
     57.748  0.0000E+00  0.5900E+01
     57.874  0.0000E+00  0.5900E+01
     58.000  0.0000E+00  0.5900E+01
     58.125  0.0000E+00  0.5900E+01
     58.251  0.3628E-11  0.5900E+01
     58.377  0.1848E-06  0.5900E+01
     58.503  0.4412E-03  0.5900E+01
     58.629  0.5459E-01  0.5907E+01
     58.755  0.4354E+00  0.5962E+01
     58.880  0.2893E+00  0.5998E+01
     59.006  0.1497E-01  0.6000E+01
     59.132  0.4569E-04  0.6000E+01
     59.258  0.6920E-08  0.6000E+01
     59.384  0.4818E-13  0.6000E+01
     59.509  0.0000E+00  0.6000E+01
     59.635  0.0000E+00  0.6000E+01
     59.761  0.0000E+00  0.6000E+01
     59.887  0.6878E-13  0.6000E+01
     60.013  0.9091E-08  0.6000E+01
     60.139  0.5550E-04  0.6000E+01
     60.264  0.1716E-01  0.6002E+01
     60.390  0.3528E+00  0.6047E+01
     60.516  0.8540E+00  0.6154E+01
     60.642  0.3493E+00  0.6198E+01
     60.768  0.7600E-01  0.6208E+01
     60.893  0.5614E+00  0.6278E+01
     61.019  0.7775E+00  0.6376E+01
     61.145  0.1866E+00  0.6399E+01
     61.271  0.4403E-02  0.6400E+01
     61.397  0.2359E-02  0.6400E+01
     61.523  0.1851E+00  0.6424E+01
     61.648  0.1086E+01  0.6560E+01
     61.774  0.9245E+00  0.6677E+01
     61.900  0.1819E+00  0.6699E+01
     62.026  0.4123E-02  0.6700E+01
     62.152  0.5557E-05  0.6700E+01
     62.277  0.4018E-08  0.6700E+01
     62.403  0.2910E-04  0.6700E+01
     62.529  0.1142E-01  0.6701E+01
     62.655  0.2604E+00  0.6734E+01
     62.781  0.4554E+00  0.6792E+01
     62.907  0.6687E-01  0.6800E+01
     63.032  0.6443E-03  0.6800E+01
     63.158  0.3247E-06  0.6800E+01
     63.284  0.7703E-11  0.6800E+01
     63.410  0.3062E-09  0.6800E+01
     63.536  0.4903E-05  0.6800E+01
     63.661  0.3785E-02  0.6800E+01
     63.787  0.1617E+00  0.6821E+01
     63.913  0.4967E+00  0.6883E+01
     64.039  0.1302E+00  0.6900E+01
     64.165  0.2396E-02  0.6900E+01
     64.291  0.2397E-05  0.6900E+01
     64.416  0.1148E-09  0.6900E+01
     64.542  0.2647E-15  0.6900E+01
     64.668  0.4131E-11  0.6900E+01
     64.794  0.2037E-06  0.6900E+01
     64.920  0.4711E-03  0.6900E+01
     65.045  0.5656E-01  0.6907E+01
     65.171  0.4404E+00  0.6963E+01
     65.297  0.3821E+00  0.7011E+01
     65.423  0.4992E+00  0.7073E+01
     65.549  0.2045E+00  0.7099E+01
     65.675  0.9200E-02  0.7100E+01
     65.800  0.1406E+00  0.7118E+01
     65.926  0.4977E+00  0.7181E+01
     66.052  0.1504E+00  0.7200E+01
     66.178  0.3241E-02  0.7200E+01
     66.304  0.3841E-05  0.7200E+01
     66.430  0.2189E-09  0.7200E+01
     66.555  0.5294E-15  0.7200E+01
     66.681  0.0000E+00  0.7200E+01
     66.807  0.0000E+00  0.7200E+01
     66.933  0.0000E+00  0.7200E+01
     67.059  0.0000E+00  0.7200E+01
     67.184  0.0000E+00  0.7200E+01
     67.310  0.0000E+00  0.7200E+01
     67.436  0.0000E+00  0.7200E+01
     67.562  0.0000E+00  0.7200E+01
     67.688  0.0000E+00  0.7200E+01
     67.814  0.0000E+00  0.7200E+01
     67.939  0.1765E-15  0.7200E+01
     68.065  0.8249E-10  0.7200E+01
     68.191  0.1881E-05  0.7200E+01
     68.317  0.2048E-02  0.7200E+01
     68.443  0.1207E+00  0.7215E+01
     68.568  0.4947E+00  0.7278E+01
     68.694  0.1729E+00  0.7299E+01
     68.820  0.4384E-02  0.7300E+01
     68.946  0.6185E-05  0.7300E+01
     69.072  0.4218E-09  0.7300E+01
     69.198  0.1360E-12  0.7300E+01
     69.323  0.1522E-07  0.7300E+01
     69.449  0.7940E-04  0.7300E+01
     69.575  0.2074E-01  0.7303E+01
     69.701  0.3259E+00  0.7344E+01
     69.827  0.4061E+00  0.7395E+01
     69.952  0.4165E-01  0.7400E+01
     70.078  0.2694E-03  0.7400E+01
     70.204  0.8933E-07  0.7400E+01
     70.330  0.7001E-09  0.7400E+01
     70.456  0.8908E-05  0.7400E+01
     70.582  0.5513E-02  0.7401E+01
     70.707  0.1916E+00  0.7425E+01
     70.833  0.4896E+00  0.7486E+01
     70.959  0.1065E+00  0.7500E+01
     71.085  0.1632E-02  0.7500E+01
     71.211  0.1459E-01  0.7502E+01
     71.336  0.2952E+00  0.7539E+01
     71.462  0.6719E+00  0.7624E+01
     71.588  0.5266E+00  0.7690E+01
     71.714  0.8038E-01  0.7700E+01
     71.840  0.9052E-03  0.7700E+01
     71.966  0.5408E-06  0.7700E+01
     72.091  0.1527E-10  0.7700E+01
     72.217  0.0000E+00  0.7700E+01
     72.343  0.0000E+00  0.7700E+01
     72.469  0.0000E+00  0.7700E+01
     72.595  0.0000E+00  0.7700E+01
     72.720  0.1059E-14  0.7700E+01
     72.846  0.3574E-09  0.7700E+01
     72.972  0.5485E-05  0.7700E+01
     73.098  0.4064E-02  0.7701E+01
     73.224  0.1670E+00  0.7722E+01
     73.350  0.4977E+00  0.7784E+01
     73.475  0.2384E+00  0.7814E+01
     73.601  0.4944E+00  0.7876E+01
     73.727  0.1830E+00  0.7899E+01
     73.853  0.4972E-02  0.7900E+01
     73.979  0.7554E-05  0.7900E+01
     74.105  0.5560E-09  0.7900E+01
     74.230  0.1853E-14  0.7900E+01
     74.356  0.4412E-16  0.7900E+01
     74.482  0.2177E-10  0.7900E+01
     74.608  0.7037E-06  0.7900E+01
     74.734  0.1077E-02  0.7900E+01
     74.859  0.8744E-01  0.7911E+01
     74.985  0.4776E+00  0.7971E+01
     75.111  0.2210E+00  0.7999E+01
     75.237  0.8431E-02  0.8000E+01
     75.363  0.7356E-01  0.8009E+01
     75.489  0.4639E+00  0.8068E+01
     75.614  0.2466E+00  0.8099E+01
     75.740  0.1405E-01  0.8101E+01
     75.866  0.1674E+00  0.8122E+01
     75.992  0.4958E+00  0.8184E+01
     76.118  0.1253E+00  0.8200E+01
     76.243  0.2228E-02  0.8200E+01
     76.369  0.7737E-02  0.8201E+01
     76.495  0.2219E+00  0.8229E+01
     76.621  0.4772E+00  0.8289E+01
     76.747  0.8690E-01  0.8300E+01
     76.873  0.1064E-02  0.8300E+01
     76.998  0.6910E-06  0.8300E+01
     77.124  0.2124E-10  0.8300E+01
     77.250  0.0000E+00  0.8300E+01
     77.376  0.0000E+00  0.8300E+01
     77.502  0.0000E+00  0.8300E+01
     77.627  0.6336E-13  0.8300E+01
     77.753  0.8536E-08  0.8300E+01
     77.879  0.5296E-04  0.8300E+01
     78.005  0.1634E-01  0.8302E+01
     78.131  0.2991E+00  0.8340E+01
     78.257  0.4519E+00  0.8397E+01
     78.382  0.3928E+00  0.8446E+01
     78.508  0.3924E+00  0.8495E+01
     78.634  0.3677E-01  0.8500E+01
     78.760  0.2155E-03  0.8500E+01