    1    1    1    1
  0.2957216E+01  0.1435361E-09  0.1435361E-09  0.1435361E-09  0.5000000E-15
  1.000000000000000E-004
  CAR 
 jump2                                   
    1   20    8
 
  0.5000000E+00  0.5000000E+00  0.0000000E+00  0.5000000E-01
   1       12.880780
   2       26.063402
   3       26.063407
   4       86.066218
   5      100.829456
   6       99.430902
   7      167.605554
   8      171.993880
 
  0.4736842E+00  0.4736842E+00  0.0000000E+00  0.5000000E-01
   1       12.410841
   2       25.088989
   3       26.164493
   4       85.570789
   5       98.128123
   6       98.905134
   7      163.343529
   8      170.025408
 
  0.4473684E+00  0.4473684E+00  0.0000000E+00  0.5000000E-01
   1       11.129229
   2       24.040526
   3       26.467782
   4       34.352430
   5       84.249089
   6      100.139793
   7      155.198963
   8      165.322959
 
  0.4210526E+00  0.4210526E+00  0.0000000E+00  0.5000000E-01
   1        9.237008
   2       23.632304
   3       26.973263
   4       82.301208
   5       90.925838
   6       99.614202
   7      148.151011
   8      160.494984
 
  0.3947368E+00  0.3947368E+00  0.0000000E+00  0.5000000E-01
   1        7.012560
   2       23.776018
   3       27.680911
   4       80.109750
   5       96.044962
   6      141.147142
   7      150.448351
   8      192.972477
 
  0.3684211E+00  0.3684211E+00  0.0000000E+00  0.5000000E-01
   1        4.670979
   2       24.330535
   3       28.590750
   4       78.149229
   5       80.722246
   6       97.562610
   7      115.704072
   8      132.136848
 
  0.3421053E+00  0.3421053E+00  0.0000000E+00  0.5000000E-01
   1        2.342185
   2       25.202914
   3       29.702765
   4       75.456000
   5       78.389435
   6       99.611543
   7      127.011561
   8      205.050358
 
  0.3157895E+00  0.3157895E+00  0.0000000E+00  0.5000000E-01
   1        0.099125
   2       26.340478
   3       31.016937
   4       73.279503
   5       75.921621
   6      101.383672
   7      121.800309
   8      196.386205
 
  0.2894737E+00  0.2894737E+00  0.0000000E+00  0.5000000E-01
   1       -2.027680
   2       27.711889
   3       32.533250
   4       71.358311
   5       73.550491
   6      107.145926
   7      135.450823
   8      183.489305
 
  0.2631579E+00  0.2631579E+00  0.0000000E+00  0.5000000E-01
   1       -3.988281
   2       29.324589
   3       34.253886
   4       65.865005
   5       71.498172
   6      107.153157
   7      114.310730
   8      141.200237
 
  0.2368421E+00  0.2368421E+00  0.0000000E+00  0.5000000E-01
   1       -5.787827
   2       31.115965
   3       36.174117
   4       69.712165
   5      102.206123
   6      107.068367
   7      108.497776
   8      168.278898
 
  0.2105263E+00  0.2105263E+00  0.0000000E+00  0.5000000E-01
   1       -7.411415
   2       33.099899
   3       38.296612
   4       65.148928
   5      100.682965
   6      109.976139
   7      143.307525
   8      156.478900
 
  0.1842105E+00  0.1842105E+00  0.0000000E+00  0.5000000E-01
   1       -8.852775
   2       35.264294
   3       40.620790
   4       63.844765
   5       86.571946
   6       90.216084
   7      145.900129
   8      215.159783
 
  0.1578947E+00  0.1578947E+00  0.0000000E+00  0.5000000E-01
   1      -10.107634
   2       37.592793
   3       43.146552
   4       62.683682
   5       88.454142
   6      113.494097
   7      128.558776
   8      159.325286
 
  0.1315789E+00  0.1315789E+00  0.0000000E+00  0.5000000E-01
   1      -11.167017
   2       40.097453
   3       45.886155
   4       61.718635
   5       81.693072
   6      108.211544
   7      144.300280
   8      157.628268
 
  0.1052632E+00  0.1052632E+00  0.0000000E+00  0.5000000E-01
   1      -12.046583
   2       42.651567
   3       48.812062
   4       60.965253
   5       76.534424
   6      105.455419
   7      129.737589
   8      197.589745
 
  0.7894737E-01  0.7894737E-01  0.0000000E+00  0.5000000E-01
   1      -12.725209
   2       45.238036
   3       51.939811
   4       60.497483
   5       74.945636
   6      121.381932
   7      125.787198
   8      137.227775
 
  0.5263158E-01  0.5263158E-01  0.0000000E+00  0.5000000E-01
   1      -13.212799
   2       47.614270
   3       55.256169
   4       60.407887
   5       68.514571
   6       70.755500
   7      123.848574
   8      136.389280
 
  0.2631579E-01  0.2631579E-01  0.0000000E+00  0.5000000E-01
   1      -13.505599
   2       49.434281
   3       58.733445
   4       60.870620
   5       65.378598
   6      129.792001
   7      132.230526
   8      133.367189
 
  0.0000000E+00  0.0000000E+00  0.0000000E+00  0.5000000E-01
   1      -13.603238
   2       50.144606
   3       61.607089
   4       61.606644
   5      123.257287
   6      133.653402
   7      135.747382
   8      206.568866
