<?xml version="1.0" encoding="ISO-8859-1"?>
<modeling>
 <generator>
  <i name="program" type="string">vasp </i>
  <i name="version" type="string">5.2.12  </i>
  <i name="subversion" type="string">11Nov11 complex                                                      parallel </i>
  <i name="platform" type="string">LinuxIFC </i>
  <i name="date" type="string">2018 01 16 </i>
  <i name="time" type="string">21:15:50 </i>
 </generator>
 <incar>
  <i type="string" name="SYSTEM"> jump2</i>
  <i type="int" name="ISTART">     1</i>
  <i type="string" name="PREC">normal</i>
  <i type="string" name="ALGO"> veryfast</i>
  <i type="logical" name="ADDGRID"> T  </i>
  <i name="AMIN">      0.01000000</i>
  <i type="int" name="ICHARG">    11</i>
  <i type="int" name="NELM">   100</i>
  <i type="int" name="IBRION">    -1</i>
  <i name="EDIFF">      0.00010000</i>
  <i name="EDIFFG">     -0.01000000</i>
  <i type="int" name="NSW">     0</i>
  <i type="int" name="ISIF">     2</i>
  <i name="ENCUT">    325.00000000</i>
  <i type="int" name="NBANDS">     8</i>
  <i type="int" name="NEDOS">  2001</i>
  <i type="string" name="LREAL"> Auto</i>
  <i type="logical" name="LPLANE"> T  </i>
  <i type="int" name="ISMEAR">     0</i>
  <i name="SIGMA">      0.10000000</i>
  <i type="logical" name="LWAVE"> T  </i>
  <i type="logical" name="LCHARG"> F  </i>
  <i type="logical" name="LVTOT"> F  </i>
  <i type="logical" name="LVHAR"> F  </i>
  <i type="logical" name="LORBIT"> F  </i>
  <i type="int" name="NELM">   100</i>
 </incar>
 <kpoints>
  <generation param="listgenerated">
   <i name="divisions" type="int">      20 </i>
   <v>       0.50000000       0.50000000       0.00000000 </v>
   <v>       0.00000000       0.00000000       0.00000000 </v>
  </generation>
  <varray name="kpointlist" >
   <v>       0.50000000       0.50000000       0.00000000 </v>
   <v>       0.47368421       0.47368421       0.00000000 </v>
   <v>       0.44736842       0.44736842       0.00000000 </v>
   <v>       0.42105263       0.42105263       0.00000000 </v>
   <v>       0.39473684       0.39473684       0.00000000 </v>
   <v>       0.36842105       0.36842105       0.00000000 </v>
   <v>       0.34210526       0.34210526       0.00000000 </v>
   <v>       0.31578947       0.31578947       0.00000000 </v>
   <v>       0.28947368       0.28947368       0.00000000 </v>
   <v>       0.26315789       0.26315789       0.00000000 </v>
   <v>       0.23684211       0.23684211       0.00000000 </v>
   <v>       0.21052632       0.21052632       0.00000000 </v>
   <v>       0.18421053       0.18421053       0.00000000 </v>
   <v>       0.15789474       0.15789474       0.00000000 </v>
   <v>       0.13157895       0.13157895       0.00000000 </v>
   <v>       0.10526316       0.10526316       0.00000000 </v>
   <v>       0.07894737       0.07894737       0.00000000 </v>
   <v>       0.05263158       0.05263158       0.00000000 </v>
   <v>       0.02631579       0.02631579       0.00000000 </v>
   <v>       0.00000000       0.00000000       0.00000000 </v>
  </varray>
  <varray name="weights" >
   <v>       0.05000000 </v>
   <v>       0.05000000 </v>
   <v>       0.05000000 </v>
   <v>       0.05000000 </v>
   <v>       0.05000000 </v>
   <v>       0.05000000 </v>
   <v>       0.05000000 </v>
   <v>       0.05000000 </v>
   <v>       0.05000000 </v>
   <v>       0.05000000 </v>
   <v>       0.05000000 </v>
   <v>       0.05000000 </v>
   <v>       0.05000000 </v>
   <v>       0.05000000 </v>
   <v>       0.05000000 </v>
   <v>       0.05000000 </v>
   <v>       0.05000000 </v>
   <v>       0.05000000 </v>
   <v>       0.05000000 </v>
   <v>       0.05000000 </v>
  </varray>
 </kpoints>
 <parameters>
  <separator name="general" >
   <i type="string" name="SYSTEM">jump2</i>
   <i type="logical" name="LCOMPAT"> F  </i>
  </separator>
  <separator name="electronic" >
   <i type="string" name="PREC">normal</i>
   <i name="ENMAX">    325.00000000</i>
   <i name="ENAUG">    400.00000000</i>
   <i name="EDIFF">      0.00010000</i>
   <i type="int" name="IALGO">    48</i>
   <i type="int" name="IWAVPR">    10</i>
   <i type="int" name="NBANDS">     8</i>
   <i name="NELECT">      1.00000000</i>
   <i type="int" name="TURBO">     0</i>
   <i type="int" name="IRESTART">     0</i>
   <i type="int" name="NREBOOT">     0</i>
   <i type="int" name="NMIN">     0</i>
   <i name="EREF">      0.00000000</i>
   <separator name="electronic smearing" >
    <i type="int" name="ISMEAR">     0</i>
    <i name="SIGMA">      0.10000000</i>
    <i name="KSPACING">      0.50000000</i>
    <i type="logical" name="KGAMMA"> T  </i>
   </separator>
   <separator name="electronic projectors" >
    <i type="logical" name="LREAL"> T  </i>
    <v name="ROPT">     -0.00050000</v>
    <i type="int" name="LMAXPAW">  -100</i>
    <i type="int" name="LMAXMIX">     2</i>
    <i type="logical" name="NLSPLINE"> F  </i>
   </separator>
   <separator name="electronic startup" >
    <i type="int" name="ISTART">     1</i>
    <i type="int" name="ICHARG">    11</i>
    <i type="int" name="INIWAV">     1</i>
   </separator>
   <separator name="electronic spin" >
    <i type="int" name="ISPIN">     1</i>
    <i type="logical" name="LNONCOLLINEAR"> F  </i>
    <v name="MAGMOM">      1.00000000</v>
    <i name="NUPDOWN">     -1.00000000</i>
    <i type="logical" name="LSORBIT"> F  </i>
    <v name="SAXIS">      0.00000000      0.00000000      1.00000000</v>
    <i type="logical" name="LSPIRAL"> F  </i>
    <v name="QSPIRAL">      0.00000000      0.00000000      0.00000000</v>
    <i type="logical" name="LZEROZ"> F  </i>
   </separator>
   <separator name="electronic exchange-correlation" >
    <i type="logical" name="LASPH"> F  </i>
    <i type="logical" name="LMETAGGA"> F  </i>
   </separator>
   <separator name="electronic convergence" >
    <i type="int" name="NELM">   100</i>
    <i type="int" name="NELMDL">     0</i>
    <i type="int" name="NELMIN">     2</i>
    <i name="ENINI">    325.00000000</i>
    <separator name="electronic convergence detail" >
     <i type="logical" name="LDIAG"> T  </i>
     <i type="logical" name="LSUBROT"> T  </i>
     <i name="WEIMIN">      0.00000000</i>
     <i name="EBREAK">      0.00000313</i>
     <i name="DEPER">      0.30000000</i>
     <i type="int" name="NRMM">     4</i>
     <i name="TIME">      0.40000000</i>
    </separator>
   </separator>
   <separator name="electronic mixer" >
    <i name="AMIX">      0.40000000</i>
    <i name="BMIX">      1.00000000</i>
    <i name="AMIN">      0.01000000</i>
    <i name="AMIX_MAG">      1.60000000</i>
    <i name="BMIX_MAG">      1.00000000</i>
    <separator name="electronic mixer details" >
     <i type="int" name="IMIX">     4</i>
     <i type="int" name="MAXMIX">   -45</i>
     <i name="WC">    100.00000000</i>
     <i type="int" name="INIMIX">     1</i>
     <i type="int" name="MIXPRE">     1</i>
     <i type="int" name="MREMOVE">     5</i>
    </separator>
   </separator>
   <separator name="electronic dipolcorrection" >
    <i type="logical" name="LDIPOL"> F  </i>
    <i type="logical" name="LMONO"> F  </i>
    <i type="int" name="IDIPOL">     0</i>
    <i name="EPSILON">      1.00000000</i>
    <v name="DIPOL">   -100.00000000   -100.00000000   -100.00000000</v>
    <i name="EFIELD">      0.00000000</i>
   </separator>
  </separator>
  <separator name="grids" >
   <i type="int" name="NGX">     6</i>
   <i type="int" name="NGY">     6</i>
   <i type="int" name="NGZ">     6</i>
   <i type="int" name="NGXF">    12</i>
   <i type="int" name="NGYF">    12</i>
   <i type="int" name="NGZF">    12</i>
   <i type="logical" name="ADDGRID"> T  </i>
  </separator>
  <separator name="ionic" >
   <i type="int" name="NSW">     0</i>
   <i type="int" name="IBRION">    -1</i>
   <i type="int" name="ISIF">     2</i>
   <i name="PSTRESS">      0.00000000</i>
   <i name="EDIFFG">     -0.01000000</i>
   <i type="int" name="NFREE">     0</i>
   <i name="POTIM">      0.50000000</i>
   <i name="SMASS">     -3.00000000</i>
   <i name="SCALEE">      1.00000000</i>
  </separator>
  <separator name="ionic md" >
   <i name="TEBEG">      0.00010000</i>
   <i name="TEEND">      0.00010000</i>
   <i type="int" name="NBLOCK">     1</i>
   <i type="int" name="KBLOCK">     1</i>
   <i type="int" name="NPACO">   256</i>
   <i name="APACO">     16.00000000</i>
  </separator>
  <separator name="symmetry" >
   <i type="int" name="ISYM">     2</i>
   <i name="SYMPREC">      0.00001000</i>
  </separator>
  <separator name="dos" >
   <i type="logical" name="LORBIT"> F  </i>
   <v name="RWIGS">     -1.00000000</v>
   <i type="int" name="NEDOS">  2001</i>
   <i name="EMIN">     10.00000000</i>
   <i name="EMAX">    -10.00000000</i>
   <i name="EFERMI">      0.00000000</i>
  </separator>
  <separator name="writing" >
   <i type="int" name="NWRITE">     2</i>
   <i type="logical" name="LWAVE"> T  </i>
   <i type="logical" name="LCHARG"> F  </i>
   <i type="logical" name="LPARD"> F  </i>
   <i type="logical" name="LVTOT"> F  </i>
   <i type="logical" name="LVHAR"> F  </i>
   <i type="logical" name="LELF"> F  </i>
   <i type="logical" name="LOPTICS"> F  </i>
   <v name="STM">      0.00000000      0.00000000      0.00000000      0.00000000      0.00000000      0.00000000      0.00000000</v>
  </separator>
  <separator name="performance" >
   <i type="int" name="NPAR">     4</i>
   <i type="int" name="NSIM">     4</i>
   <i type="int" name="NBLK">    -1</i>
   <i type="logical" name="LPLANE"> T  </i>
   <i type="logical" name="LSCALAPACK"> T  </i>
   <i type="logical" name="LSCAAWARE"> T  </i>
   <i type="logical" name="LSCALU"> F  </i>
   <i type="logical" name="LASYNC"> F  </i>
   <i type="logical" name="LORBITALREAL"> F  </i>
  </separator>
  <separator name="miscellaneous" >
   <i type="int" name="IDIOT">     3</i>
   <i type="logical" name="LMUSIC"> F  </i>
   <v name="POMASS">      1.00000000</v>
   <v name="DARWINR">      0.00000000</v>
   <v name="DARWINV">      1.00000000</v>
   <i type="logical" name="LCORR"> T  </i>
  </separator>
  <i type="logical" name="GGA_COMPAT"> T  </i>
  <i type="logical" name="LBERRY"> F  </i>
  <i type="int" name="ICORELEVEL">     0</i>
  <i type="logical" name="LDAU"> F  </i>
  <i type="int" name="I_CONSTRAINED_M">     0</i>
  <separator name="electronic exchange-correlation" >
   <i type="string" name="GGA">--</i>
   <i type="int" name="VOSKOWN">     0</i>
   <i type="logical" name="LHFCALC"> F  </i>
   <i type="string" name="PRECFOCK"></i>
   <i type="logical" name="LHFONE"> F  </i>
   <i type="logical" name="LRHFCALC"> F  </i>
   <i type="logical" name="LTHOMAS"> F  </i>
   <i type="logical" name="LMODELHF"> F  </i>
   <i name="ENCUT4O">     -1.00000000</i>
   <i type="int" name="EXXOEP">     0</i>
   <i type="int" name="FOURORBIT">     0</i>
   <i name="AEXX">      0.00000000</i>
   <i name="HFALPHA">      0.00000000</i>
   <i name="ALDAX">      1.00000000</i>
   <i name="AGGAX">      1.00000000</i>
   <i name="ALDAC">      1.00000000</i>
   <i name="AGGAC">      1.00000000</i>
   <i type="int" name="NKREDX">     1</i>
   <i type="int" name="NKREDY">     1</i>
   <i type="int" name="NKREDZ">     1</i>
   <i type="logical" name="SHIFTRED"> F  </i>
   <i type="logical" name="ODDONLY"> F  </i>
   <i type="logical" name="EVENONLY"> F  </i>
   <i type="int" name="LMAXFOCK">     0</i>
   <i type="int" name="NMAXFOCKAE">     0</i>
   <i type="logical" name="LFOCKAEDFT"> F  </i>
   <i name="HFSCREEN">      0.00000000</i>
   <i name="HFSCREENC">      0.00000000</i>
  </separator>
  <separator name="vdW DFT" >
   <i type="logical" name="LUSE_VDW"> F  </i>
   <i name="Zab_VDW">     -0.84910000</i>
   <i name="PARAM1">      0.12340000</i>
   <i name="PARAM2">      1.00000000</i>
   <i name="PARAM3">      0.00000000</i>
  </separator>
  <separator name="model GW" >
   <i type="int" name="MODEL_GW">     0</i>
   <i name="MODEL_EPS0">      1.77432948</i>
   <i name="MODEL_ALPHA">      1.00000000</i>
  </separator>
  <separator name="linear response parameters" >
   <i type="logical" name="LEPSILON"> F  </i>
   <i type="logical" name="LRPA"> F  </i>
   <i type="logical" name="LNABLA"> F  </i>
   <i type="logical" name="LVEL"> F  </i>
   <i type="int" name="KINTER">     0</i>
   <i name="CSHIFT">      0.10000000</i>
   <i name="OMEGAMAX">     -1.00000000</i>
  </separator>
  <separator name="orbital magnetization" >
   <i type="logical" name="NUCIND"> F  </i>
   <v name="MAGPOS">      0.00000000      0.00000000      0.00000000</v>
   <i type="logical" name="LNICSALL"> T  </i>
   <i type="logical" name="ORBITALMAG"> F  </i>
   <i type="logical" name="LMAGBLOCH"> F  </i>
   <i type="logical" name="LCHIMAG"> F  </i>
   <i type="logical" name="LGAUGE"> T  </i>
   <i type="int" name="MAGATOM">     0</i>
   <v name="MAGDIPOL">      0.00000000      0.00000000      0.00000000</v>
   <v name="AVECCONST">      0.00000000      0.00000000      0.00000000</v>
  </separator>
  <separator name="response functions" >
   <i type="logical" name="LADDER"> F  </i>
   <i type="logical" name="LHARTREE"> T  </i>
   <i type="int" name="IBSE">     0</i>
   <i type="logical" name="LTCTE"> F  </i>
   <i type="logical" name="LTETE"> F  </i>
   <i type="logical" name="LFXCEPS"> F  </i>
   <i type="logical" name="L2ORDER"> F  </i>
   <i type="logical" name="LUSEW"> F  </i>
   <i name="ENCUTGW">     -2.00000000</i>
   <i name="ENCUTGWSOFT">     -2.00000000</i>
   <i name="ENCUTLF">     -1.00000000</i>
   <i type="int" name="LMAXMP2">    -1</i>
   <i name="SCISSOR">      0.00000000</i>
   <i type="int" name="NOMEGA">     0</i>
   <i type="int" name="NOMEGAR">     0</i>
   <i type="int" name="NBANDSGW">    -1</i>
   <i type="int" name="NBANDSO">    -1</i>
   <i type="int" name="NBANDSV">    -1</i>
   <i name="OPTEMAX">      0.00000000</i>
   <i type="int" name="NELM">   100</i>
   <i type="int" name="DIM">     3</i>
   <i type="int" name="ANTIRES">     0</i>
   <i name="OMEGAMAX">    -30.00000000</i>
   <i name="OMEGATL">   -200.00000000</i>
   <i type="int" name="OMEGAGRID">     0</i>
   <i name="CSHIFT">     -0.10000000</i>
   <i type="logical" name="SELFENERGY"> F  </i>
   <i type="logical" name="LSPECTRAL"> F  </i>
   <i type="logical" name="ODDONLYGW"> F  </i>
   <i type="logical" name="EVENONLYGW"> F  </i>
   <i type="int" name="NKREDLFX">     1</i>
   <i type="int" name="NKREDLFY">     1</i>
   <i type="int" name="NKREDLFZ">     1</i>
   <i type="int" name="MAXMEM">  1800</i>
   <i type="int" name="TELESCOPE">     0</i>
  </separator>
 </parameters>
 <atominfo>
  <atoms>       1 </atoms>
  <types>       1 </types>
  <array name="atoms" >
   <dimension dim="1">ion</dimension>
   <field type="string">element</field>
   <field type="int">atomtype</field>
   <set>
    <rc><c>H </c><c>   1</c></rc>
   </set>
  </array>
  <array name="atomtypes" >
   <dimension dim="1">type</dimension>
   <field type="int">atomspertype</field>
   <field type="string">element</field>
   <field>mass</field>
   <field>valence</field>
   <field type="string">pseudopotential</field>
   <set>
    <rc><c>   1</c><c>H </c><c>      1.00000000</c><c>      1.00000000</c><c> PAW_PBE H 15Jun2001                    </c></rc>
   </set>
  </array>
 </atominfo>
 <structure name="initialpos" >
  <crystal>
   <varray name="basis" >
    <v>       1.43536055       0.00000000       0.00000000 </v>
    <v>       0.00000000       1.43536055       0.00000000 </v>
    <v>       0.00000000       0.00000000       1.43536055 </v>
   </varray>
   <i name="volume">      2.95721580 </i>
   <varray name="rec_basis" >
    <v>       0.69668907       0.00000000       0.00000000 </v>
    <v>       0.00000000       0.69668907       0.00000000 </v>
    <v>       0.00000000       0.00000000       0.69668907 </v>
   </varray>
  </crystal>
  <varray name="positions" >
   <v>       0.00000000       0.00000000       0.00000000 </v>
  </varray>
 </structure>
 <calculation>
  <scstep>
   <time name="diag">    0.02    0.04</time>
   <time name="diis">    0.02    0.05</time>
   <time name="orth">    0.00    0.01</time>
   <time name="total">    0.05    0.10</time>
   <energy>
    <i name="alphaZ">      0.82381590 </i>
    <i name="ewald">    -14.23213143 </i>
    <i name="hartreedc">     -0.36095373 </i>
    <i name="XCdc">      2.76127529 </i>
    <i name="pawpsdc">      1.82026030 </i>
    <i name="pawaedc">     -1.83252046 </i>
    <i name="eentropy">     -0.00000000 </i>
    <i name="bandstr">    -10.84096816 </i>
    <i name="atom">     12.45896517 </i>
    <i name="e_fr_energy">     -9.40225712 </i>
    <i name="e_wo_entrp">     -9.40225712 </i>
    <i name="e_0_energy">     -9.40225712 </i>
   </energy>
  </scstep>
  <scstep>
   <time name="diag">    0.02    0.04</time>
   <time name="diis">    0.02    0.04</time>
   <time name="orth">    0.00    0.01</time>
   <time name="total">    0.04    0.09</time>
   <energy>
    <i name="e_fr_energy">     -9.40329815 </i>
    <i name="e_wo_entrp">     -9.40329815 </i>
    <i name="e_0_energy">     -9.40329815 </i>
   </energy>
  </scstep>
  <scstep>
   <time name="diag">    0.02    0.04</time>
   <time name="diis">    0.02    0.04</time>
   <time name="orth">    0.00    0.01</time>
   <time name="total">    0.04    0.09</time>
   <energy>
    <i name="alphaZ">      0.82381590 </i>
    <i name="ewald">    -14.23213143 </i>
    <i name="hartreedc">     -0.36095373 </i>
    <i name="XCdc">      2.76127529 </i>
    <i name="pawpsdc">      1.82026030 </i>
    <i name="pawaedc">     -1.83252046 </i>
    <i name="eentropy">     -0.00000000 </i>
    <i name="bandstr">    -10.84200950 </i>
    <i name="atom">     12.45896517 </i>
    <i name="e_fr_energy">     -9.40329846 </i>
    <i name="e_wo_entrp">     -9.40329846 </i>
    <i name="e_0_energy">     -9.40329846 </i>
   </energy>
  </scstep>
  <parameters_embedded>
   <separator name="dft+d2" >
    <i type="logical" name="LVDW"> F  </i>
   </separator>
  </parameters_embedded>
  <structure>
   <crystal>
    <varray name="basis" >
     <v>       1.43536055       0.00000000       0.00000000 </v>
     <v>       0.00000000       1.43536055       0.00000000 </v>
     <v>       0.00000000       0.00000000       1.43536055 </v>
    </varray>
    <i name="volume">      2.95721580 </i>
    <varray name="rec_basis" >
     <v>       0.69668907       0.00000000       0.00000000 </v>
     <v>       0.00000000       0.69668907       0.00000000 </v>
     <v>       0.00000000       0.00000000       0.69668907 </v>
    </varray>
   </crystal>
   <varray name="positions" >
    <v>       0.00000000       0.00000000       0.00000000 </v>
   </varray>
  </structure>
  <varray name="forces" >
   <v>       0.00000000       0.00000000       0.00000000 </v>
  </varray>
  <varray name="stress" >
   <v>   -2890.63545064      -0.00000000      -0.00000000 </v>
   <v>      -0.00000000   -2890.63545064       0.00000000 </v>
   <v>       0.00000000       0.00000000   -2890.63545064 </v>
  </varray>
  <energy>
   <i name="e_fr_energy">     -9.40329846 </i>
   <i name="e_wo_entrp">     -9.40329846 </i>
   <i name="e_0_energy">     -0.00000000 </i>
  </energy>
  <time name="totalsc">    0.17    0.34</time>
  <eigenvalues>
   <array>
    <dimension dim="1">band</dimension>
    <dimension dim="2">kpoint</dimension>
    <dimension dim="3">spin</dimension>
    <field>eigene</field>
    <field>occ</field>
    <set>
     <set comment="spin 1">
      <set comment="kpoint 1">
       <r>   12.8808    0.0000 </r>
       <r>   26.0634    0.0000 </r>
       <r>   26.0634    0.0000 </r>
       <r>   86.0662    0.0000 </r>
       <r>  100.8295    0.0000 </r>
       <r>   99.4309    0.0000 </r>
       <r>  167.6056    0.0000 </r>
       <r>  171.9939    0.0000 </r>
      </set>
      <set comment="kpoint 2">
       <r>   12.4108    0.0000 </r>
       <r>   25.0890    0.0000 </r>
       <r>   26.1645    0.0000 </r>
       <r>   85.5708    0.0000 </r>
       <r>   98.1281    0.0000 </r>
       <r>   98.9051    0.0000 </r>
       <r>  163.3435    0.0000 </r>
       <r>  170.0254    0.0000 </r>
      </set>
      <set comment="kpoint 3">
       <r>   11.1292    0.0000 </r>
       <r>   24.0405    0.0000 </r>
       <r>   26.4678    0.0000 </r>
       <r>   34.3524    0.0000 </r>
       <r>   84.2491    0.0000 </r>
       <r>  100.1398    0.0000 </r>
       <r>  155.1990    0.0000 </r>
       <r>  165.3230    0.0000 </r>
      </set>
      <set comment="kpoint 4">
       <r>    9.2370    0.0000 </r>
       <r>   23.6323    0.0000 </r>
       <r>   26.9733    0.0000 </r>
       <r>   82.3012    0.0000 </r>
       <r>   90.9258    0.0000 </r>
       <r>   99.6142    0.0000 </r>
       <r>  148.1510    0.0000 </r>
       <r>  160.4950    0.0000 </r>
      </set>
      <set comment="kpoint 5">
       <r>    7.0126    0.0000 </r>
       <r>   23.7760    0.0000 </r>
       <r>   27.6809    0.0000 </r>
       <r>   80.1097    0.0000 </r>
       <r>   96.0450    0.0000 </r>
       <r>  141.1471    0.0000 </r>
       <r>  150.4484    0.0000 </r>
       <r>  192.9725    0.0000 </r>
      </set>
      <set comment="kpoint 6">
       <r>    4.6710    0.0000 </r>
       <r>   24.3305    0.0000 </r>
       <r>   28.5908    0.0000 </r>
       <r>   78.1492    0.0000 </r>
       <r>   80.7222    0.0000 </r>
       <r>   97.5626    0.0000 </r>
       <r>  115.7041    0.0000 </r>
       <r>  132.1368    0.0000 </r>
      </set>
      <set comment="kpoint 7">
       <r>    2.3422    0.0000 </r>
       <r>   25.2029    0.0000 </r>
       <r>   29.7028    0.0000 </r>
       <r>   75.4560    0.0000 </r>
       <r>   78.3894    0.0000 </r>
       <r>   99.6115    0.0000 </r>
       <r>  127.0116    0.0000 </r>
       <r>  205.0504    0.0000 </r>
      </set>
      <set comment="kpoint 8">
       <r>    0.0991    0.0000 </r>
       <r>   26.3405    0.0000 </r>
       <r>   31.0169    0.0000 </r>
       <r>   73.2795    0.0000 </r>
       <r>   75.9216    0.0000 </r>
       <r>  101.3837    0.0000 </r>
       <r>  121.8003    0.0000 </r>
       <r>  196.3862    0.0000 </r>
      </set>
      <set comment="kpoint 9">
       <r>   -2.0277    0.0000 </r>
       <r>   27.7119    0.0000 </r>
       <r>   32.5333    0.0000 </r>
       <r>   71.3583    0.0000 </r>
       <r>   73.5505    0.0000 </r>
       <r>  107.1459    0.0000 </r>
       <r>  135.4508    0.0000 </r>
       <r>  183.4893    0.0000 </r>
      </set>
      <set comment="kpoint 10">
       <r>   -3.9883    0.0000 </r>
       <r>   29.3246    0.0000 </r>
       <r>   34.2539    0.0000 </r>
       <r>   65.8650    0.0000 </r>
       <r>   71.4982    0.0000 </r>
       <r>  107.1532    0.0000 </r>
       <r>  114.3107    0.0000 </r>
       <r>  141.2002    0.0000 </r>
      </set>
      <set comment="kpoint 11">
       <r>   -5.7878    1.0000 </r>
       <r>   31.1160    0.0000 </r>
       <r>   36.1741    0.0000 </r>
       <r>   69.7122    0.0000 </r>
       <r>  102.2061    0.0000 </r>
       <r>  107.0684    0.0000 </r>
       <r>  108.4978    0.0000 </r>
       <r>  168.2789    0.0000 </r>
      </set>
      <set comment="kpoint 12">
       <r>   -7.4114    1.0000 </r>
       <r>   33.0999    0.0000 </r>
       <r>   38.2966    0.0000 </r>
       <r>   65.1489    0.0000 </r>
       <r>  100.6830    0.0000 </r>
       <r>  109.9761    0.0000 </r>
       <r>  143.3075    0.0000 </r>
       <r>  156.4789    0.0000 </r>
      </set>
      <set comment="kpoint 13">
       <r>   -8.8528    1.0000 </r>
       <r>   35.2643    0.0000 </r>
       <r>   40.6208    0.0000 </r>
       <r>   63.8448    0.0000 </r>
       <r>   86.5719    0.0000 </r>
       <r>   90.2161    0.0000 </r>
       <r>  145.9001    0.0000 </r>
       <r>  215.1598    0.0000 </r>
      </set>
      <set comment="kpoint 14">
       <r>  -10.1076    1.0000 </r>
       <r>   37.5928    0.0000 </r>
       <r>   43.1466    0.0000 </r>
       <r>   62.6837    0.0000 </r>
       <r>   88.4541    0.0000 </r>
       <r>  113.4941    0.0000 </r>
       <r>  128.5588    0.0000 </r>
       <r>  159.3253    0.0000 </r>
      </set>
      <set comment="kpoint 15">
       <r>  -11.1670    1.0000 </r>
       <r>   40.0975    0.0000 </r>
       <r>   45.8862    0.0000 </r>
       <r>   61.7186    0.0000 </r>
       <r>   81.6931    0.0000 </r>
       <r>  108.2115    0.0000 </r>
       <r>  144.3003    0.0000 </r>
       <r>  157.6283    0.0000 </r>
      </set>
      <set comment="kpoint 16">
       <r>  -12.0466    1.0000 </r>
       <r>   42.6516    0.0000 </r>
       <r>   48.8121    0.0000 </r>
       <r>   60.9653    0.0000 </r>
       <r>   76.5344    0.0000 </r>
       <r>  105.4554    0.0000 </r>
       <r>  129.7376    0.0000 </r>
       <r>  197.5897    0.0000 </r>
      </set>
      <set comment="kpoint 17">
       <r>  -12.7252    1.0000 </r>
       <r>   45.2380    0.0000 </r>
       <r>   51.9398    0.0000 </r>
       <r>   60.4975    0.0000 </r>
       <r>   74.9456    0.0000 </r>
       <r>  121.3819    0.0000 </r>
       <r>  125.7872    0.0000 </r>
       <r>  137.2278    0.0000 </r>
      </set>
      <set comment="kpoint 18">
       <r>  -13.2128    1.0000 </r>
       <r>   47.6143    0.0000 </r>
       <r>   55.2562    0.0000 </r>
       <r>   60.4079    0.0000 </r>
       <r>   68.5146    0.0000 </r>
       <r>   70.7555    0.0000 </r>
       <r>  123.8486    0.0000 </r>
       <r>  136.3893    0.0000 </r>
      </set>
      <set comment="kpoint 19">
       <r>  -13.5056    1.0000 </r>
       <r>   49.4343    0.0000 </r>
       <r>   58.7334    0.0000 </r>
       <r>   60.8706    0.0000 </r>
       <r>   65.3786    0.0000 </r>
       <r>  129.7920    0.0000 </r>
       <r>  132.2305    0.0000 </r>
       <r>  133.3672    0.0000 </r>
      </set>
      <set comment="kpoint 20">
       <r>  -13.6032    1.0000 </r>
       <r>   50.1446    0.0000 </r>
       <r>   61.6071    0.0000 </r>
       <r>   61.6066    0.0000 </r>
       <r>  123.2573    0.0000 </r>
       <r>  133.6534    0.0000 </r>
       <r>  135.7474    0.0000 </r>
       <r>  206.5689    0.0000 </r>
      </set>
     </set>
    </set>
   </array>
  </eigenvalues>
  <separator name="orbital magnetization" >
   <v name="MAGDIPOLOUT">      0.00000000      0.00000000      0.00000000</v>
  </separator>
  <dos>
   <i name="efermi">     -5.28377063 </i>
   <total>
    <array>
     <dimension dim="1">gridpoints</dimension>
     <dimension dim="2">spin</dimension>
     <field>energy</field>
     <field>total</field>
     <field>integrated</field>
     <set>
      <set comment="spin 1">
       <r>   -25.0414     0.0000     0.0000 </r>
       <r>   -24.9156     0.0000     0.0000 </r>
       <r>   -24.7898     0.0000     0.0000 </r>
       <r>   -24.6639     0.0000     0.0000 </r>
       <r>   -24.5381     0.0000     0.0000 </r>
       <r>   -24.4123     0.0000     0.0000 </r>
       <r>   -24.2865     0.0000     0.0000 </r>
       <r>   -24.1607     0.0000     0.0000 </r>
       <r>   -24.0348     0.0000     0.0000 </r>
       <r>   -23.9090     0.0000     0.0000 </r>
       <r>   -23.7832     0.0000     0.0000 </r>
       <r>   -23.6574     0.0000     0.0000 </r>
       <r>   -23.5316     0.0000     0.0000 </r>
       <r>   -23.4057     0.0000     0.0000 </r>
       <r>   -23.2799     0.0000     0.0000 </r>
       <r>   -23.1541     0.0000     0.0000 </r>
       <r>   -23.0283     0.0000     0.0000 </r>
       <r>   -22.9025     0.0000     0.0000 </r>
       <r>   -22.7766     0.0000     0.0000 </r>
       <r>   -22.6508     0.0000     0.0000 </r>
       <r>   -22.5250     0.0000     0.0000 </r>
       <r>   -22.3992     0.0000     0.0000 </r>
       <r>   -22.2734     0.0000     0.0000 </r>
       <r>   -22.1475     0.0000     0.0000 </r>
       <r>   -22.0217     0.0000     0.0000 </r>
       <r>   -21.8959     0.0000     0.0000 </r>
       <r>   -21.7701     0.0000     0.0000 </r>
       <r>   -21.6443     0.0000     0.0000 </r>
       <r>   -21.5184     0.0000     0.0000 </r>
       <r>   -21.3926     0.0000     0.0000 </r>
       <r>   -21.2668     0.0000     0.0000 </r>
       <r>   -21.1410     0.0000     0.0000 </r>
       <r>   -21.0152     0.0000     0.0000 </r>
       <r>   -20.8893     0.0000     0.0000 </r>
       <r>   -20.7635     0.0000     0.0000 </r>
       <r>   -20.6377     0.0000     0.0000 </r>
       <r>   -20.5119     0.0000     0.0000 </r>
       <r>   -20.3861     0.0000     0.0000 </r>
       <r>   -20.2602     0.0000     0.0000 </r>
       <r>   -20.1344     0.0000     0.0000 </r>
       <r>   -20.0086     0.0000     0.0000 </r>
       <r>   -19.8828     0.0000     0.0000 </r>
       <r>   -19.7570     0.0000     0.0000 </r>
       <r>   -19.6311     0.0000     0.0000 </r>
       <r>   -19.5053     0.0000     0.0000 </r>
       <r>   -19.3795     0.0000     0.0000 </r>
       <r>   -19.2537     0.0000     0.0000 </r>
       <r>   -19.1279     0.0000     0.0000 </r>
       <r>   -19.0020     0.0000     0.0000 </r>
       <r>   -18.8762     0.0000     0.0000 </r>
       <r>   -18.7504     0.0000     0.0000 </r>
       <r>   -18.6246     0.0000     0.0000 </r>
       <r>   -18.4988     0.0000     0.0000 </r>
       <r>   -18.3729     0.0000     0.0000 </r>
       <r>   -18.2471     0.0000     0.0000 </r>
       <r>   -18.1213     0.0000     0.0000 </r>
       <r>   -17.9955     0.0000     0.0000 </r>
       <r>   -17.8697     0.0000     0.0000 </r>
       <r>   -17.7438     0.0000     0.0000 </r>
       <r>   -17.6180     0.0000     0.0000 </r>
       <r>   -17.4922     0.0000     0.0000 </r>
       <r>   -17.3664     0.0000     0.0000 </r>
       <r>   -17.2406     0.0000     0.0000 </r>
       <r>   -17.1148     0.0000     0.0000 </r>
       <r>   -16.9889     0.0000     0.0000 </r>
       <r>   -16.8631     0.0000     0.0000 </r>
       <r>   -16.7373     0.0000     0.0000 </r>
       <r>   -16.6115     0.0000     0.0000 </r>
       <r>   -16.4857     0.0000     0.0000 </r>
       <r>   -16.3598     0.0000     0.0000 </r>
       <r>   -16.2340     0.0000     0.0000 </r>
       <r>   -16.1082     0.0000     0.0000 </r>
       <r>   -15.9824     0.0000     0.0000 </r>
       <r>   -15.8566     0.0000     0.0000 </r>
       <r>   -15.7307     0.0000     0.0000 </r>
       <r>   -15.6049     0.0000     0.0000 </r>
       <r>   -15.4791     0.0000     0.0000 </r>
       <r>   -15.3533     0.0000     0.0000 </r>
       <r>   -15.2275     0.0000     0.0000 </r>
       <r>   -15.1016     0.0000     0.0000 </r>
       <r>   -14.9758     0.0000     0.0000 </r>
       <r>   -14.8500     0.0000     0.0000 </r>
       <r>   -14.7242     0.0000     0.0000 </r>
       <r>   -14.5984     0.0000     0.0000 </r>
       <r>   -14.4725     0.0000     0.0000 </r>
       <r>   -14.3467     0.0000     0.0000 </r>
       <r>   -14.2209     0.0000     0.0000 </r>
       <r>   -14.0951     0.0000     0.0000 </r>
       <r>   -13.9693     0.0000     0.0000 </r>
       <r>   -13.8434     0.0003     0.0000 </r>
       <r>   -13.7176     0.0428     0.0054 </r>
       <r>   -13.5918     0.4939     0.0676 </r>
       <r>   -13.4660     0.8033     0.1686 </r>
       <r>   -13.3402     0.2700     0.2026 </r>
       <r>   -13.2143     0.3697     0.2491 </r>
       <r>   -13.0885     0.3730     0.2961 </r>
       <r>   -12.9627     0.0315     0.3000 </r>
       <r>   -12.8369     0.0453     0.3057 </r>
       <r>   -12.7111     0.4150     0.3579 </r>
       <r>   -12.5852     0.3154     0.3976 </r>
       <r>   -12.4594     0.0189     0.4000 </r>
       <r>   -12.3336     0.0001     0.4000 </r>
       <r>   -12.2078     0.0090     0.4011 </r>
       <r>   -12.0820     0.2361     0.4308 </r>
       <r>   -11.9561     0.4698     0.4900 </r>
       <r>   -11.8303     0.0790     0.4999 </r>
       <r>   -11.7045     0.0009     0.5000 </r>
       <r>   -11.5787     0.0000     0.5000 </r>
       <r>   -11.4529     0.0000     0.5000 </r>
       <r>   -11.3270     0.0094     0.5012 </r>
       <r>   -11.2012     0.2404     0.5314 </r>
       <r>   -11.0754     0.4675     0.5902 </r>
       <r>   -10.9496     0.0767     0.5999 </r>
       <r>   -10.8238     0.0008     0.6000 </r>
       <r>   -10.6979     0.0000     0.6000 </r>
       <r>   -10.5721     0.0000     0.6000 </r>
       <r>   -10.4463     0.0000     0.6000 </r>
       <r>   -10.3205     0.0010     0.6001 </r>
       <r>   -10.1947     0.0857     0.6109 </r>
       <r>   -10.0688     0.4762     0.6708 </r>
       <r>    -9.9430     0.2239     0.6990 </r>
       <r>    -9.8172     0.0079     0.7000 </r>
       <r>    -9.6914     0.0000     0.7000 </r>
       <r>    -9.5656     0.0000     0.7000 </r>
       <r>    -9.4398     0.0000     0.7000 </r>
       <r>    -9.3139     0.0000     0.7000 </r>
       <r>    -9.1881     0.0000     0.7000 </r>
       <r>    -9.0623     0.0012     0.7002 </r>
       <r>    -8.9365     0.0928     0.7118 </r>
       <r>    -8.8107     0.4817     0.7724 </r>
       <r>    -8.6848     0.2121     0.7991 </r>
       <r>    -8.5590     0.0070     0.8000 </r>
       <r>    -8.4332     0.0000     0.8000 </r>
       <r>    -8.3074     0.0000     0.8000 </r>
       <r>    -8.1816     0.0000     0.8000 </r>
       <r>    -8.0557     0.0000     0.8000 </r>
       <r>    -7.9299     0.0000     0.8000 </r>
       <r>    -7.8041     0.0000     0.8000 </r>
       <r>    -7.6783     0.0001     0.8000 </r>
       <r>    -7.5525     0.0182     0.8023 </r>
       <r>    -7.4266     0.3113     0.8415 </r>
       <r>    -7.3008     0.4183     0.8941 </r>
       <r>    -7.1750     0.0465     0.9000 </r>
       <r>    -7.0492     0.0003     0.9000 </r>
       <r>    -6.9234     0.0000     0.9000 </r>
       <r>    -6.7975     0.0000     0.9000 </r>
       <r>    -6.6717     0.0000     0.9000 </r>
       <r>    -6.5459     0.0000     0.9000 </r>
       <r>    -6.4201     0.0000     0.9000 </r>
       <r>    -6.2943     0.0000     0.9000 </r>
       <r>    -6.1684     0.0000     0.9000 </r>
       <r>    -6.0426     0.0001     0.9000 </r>
       <r>    -5.9168     0.0270     0.9034 </r>
       <r>    -5.7910     0.3562     0.9482 </r>
       <r>    -5.6652     0.3786     0.9959 </r>
       <r>    -5.5393     0.0327     1.0000 </r>
       <r>    -5.4135     0.0002     1.0000 </r>
       <r>    -5.2877     0.0000     1.0000 </r>
       <r>    -5.1619     0.0000     1.0000 </r>
       <r>    -5.0361     0.0000     1.0000 </r>
       <r>    -4.9102     0.0000     1.0000 </r>
       <r>    -4.7844     0.0000     1.0000 </r>
       <r>    -4.6586     0.0000     1.0000 </r>
       <r>    -4.5328     0.0000     1.0000 </r>
       <r>    -4.4070     0.0000     1.0000 </r>
       <r>    -4.2811     0.0000     1.0000 </r>
       <r>    -4.1553     0.0072     1.0009 </r>
       <r>    -4.0295     0.2153     1.0280 </r>
       <r>    -3.9037     0.4803     1.0884 </r>
       <r>    -3.7779     0.0909     1.0999 </r>
       <r>    -3.6520     0.0012     1.1000 </r>
       <r>    -3.5262     0.0000     1.1000 </r>
       <r>    -3.4004     0.0000     1.1000 </r>
       <r>    -3.2746     0.0000     1.1000 </r>
       <r>    -3.1488     0.0000     1.1000 </r>
       <r>    -3.0229     0.0000     1.1000 </r>
       <r>    -2.8971     0.0000     1.1000 </r>
       <r>    -2.7713     0.0000     1.1000 </r>
       <r>    -2.6455     0.0000     1.1000 </r>
       <r>    -2.5197     0.0000     1.1000 </r>
       <r>    -2.3939     0.0000     1.1000 </r>
       <r>    -2.2680     0.0003     1.1000 </r>
       <r>    -2.1422     0.0416     1.1053 </r>
       <r>    -2.0164     0.4060     1.1563 </r>
       <r>    -1.8906     0.3261     1.1974 </r>
       <r>    -1.7648     0.0208     1.2000 </r>
       <r>    -1.6389     0.0001     1.2000 </r>
       <r>    -1.5131     0.0000     1.2000 </r>
       <r>    -1.3873     0.0000     1.2000 </r>
       <r>    -1.2615     0.0000     1.2000 </r>
       <r>    -1.1357     0.0000     1.2000 </r>
       <r>    -1.0098     0.0000     1.2000 </r>
       <r>    -0.8840     0.0000     1.2000 </r>
       <r>    -0.7582     0.0000     1.2000 </r>
       <r>    -0.6324     0.0000     1.2000 </r>
       <r>    -0.5066     0.0000     1.2000 </r>
       <r>    -0.3807     0.0000     1.2000 </r>
       <r>    -0.2549     0.0000     1.2000 </r>
       <r>    -0.1291     0.0005     1.2001 </r>
       <r>    -0.0033     0.0581     1.2074 </r>
       <r>     0.1225     0.4419     1.2630 </r>
       <r>     0.2484     0.2804     1.2983 </r>
       <r>     0.3742     0.0138     1.3000 </r>
       <r>     0.5000     0.0000     1.3000 </r>
       <r>     0.6258     0.0000     1.3000 </r>
       <r>     0.7516     0.0000     1.3000 </r>
       <r>     0.8775     0.0000     1.3000 </r>
       <r>     1.0033     0.0000     1.3000 </r>
       <r>     1.1291     0.0000     1.3000 </r>
       <r>     1.2549     0.0000     1.3000 </r>
       <r>     1.3807     0.0000     1.3000 </r>
       <r>     1.5066     0.0000     1.3000 </r>
       <r>     1.6324     0.0000     1.3000 </r>
       <r>     1.7582     0.0000     1.3000 </r>
       <r>     1.8840     0.0000     1.3000 </r>
       <r>     2.0098     0.0000     1.3000 </r>
       <r>     2.1357     0.0014     1.3002 </r>
       <r>     2.2615     0.0994     1.3127 </r>
       <r>     2.3873     0.4859     1.3738 </r>
       <r>     2.5131     0.2018     1.3992 </r>
       <r>     2.6389     0.0062     1.4000 </r>
       <r>     2.7648     0.0000     1.4000 </r>
       <r>     2.8906     0.0000     1.4000 </r>
       <r>     3.0164     0.0000     1.4000 </r>
       <r>     3.1422     0.0000     1.4000 </r>
       <r>     3.2680     0.0000     1.4000 </r>
       <r>     3.3939     0.0000     1.4000 </r>
       <r>     3.5197     0.0000     1.4000 </r>
       <r>     3.6455     0.0000     1.4000 </r>
       <r>     3.7713     0.0000     1.4000 </r>
       <r>     3.8971     0.0000     1.4000 </r>
       <r>     4.0230     0.0000     1.4000 </r>
       <r>     4.1488     0.0000     1.4000 </r>
       <r>     4.2746     0.0000     1.4000 </r>
       <r>     4.4004     0.0001     1.4000 </r>
       <r>     4.5262     0.0161     1.4020 </r>
       <r>     4.6521     0.2974     1.4394 </r>
       <r>     4.7779     0.4294     1.4935 </r>
       <r>     4.9037     0.0515     1.5000 </r>
       <r>     5.0295     0.0004     1.5000 </r>
       <r>     5.1553     0.0000     1.5000 </r>
       <r>     5.2811     0.0000     1.5000 </r>
       <r>     5.4070     0.0000     1.5000 </r>
       <r>     5.5328     0.0000     1.5000 </r>
       <r>     5.6586     0.0000     1.5000 </r>
       <r>     5.7844     0.0000     1.5000 </r>
       <r>     5.9102     0.0000     1.5000 </r>
       <r>     6.0361     0.0000     1.5000 </r>
       <r>     6.1619     0.0000     1.5000 </r>
       <r>     6.2877     0.0000     1.5000 </r>
       <r>     6.4135     0.0000     1.5000 </r>
       <r>     6.5393     0.0000     1.5000 </r>
       <r>     6.6652     0.0000     1.5000 </r>
       <r>     6.7910     0.0007     1.5001 </r>
       <r>     6.9168     0.0691     1.5088 </r>
       <r>     7.0426     0.4584     1.5665 </r>
       <r>     7.1684     0.2556     1.5986 </r>
       <r>     7.2943     0.0109     1.6000 </r>
       <r>     7.4201     0.0000     1.6000 </r>
       <r>     7.5459     0.0000     1.6000 </r>
       <r>     7.6717     0.0000     1.6000 </r>
       <r>     7.7975     0.0000     1.6000 </r>
       <r>     7.9234     0.0000     1.6000 </r>
       <r>     8.0492     0.0000     1.6000 </r>
       <r>     8.1750     0.0000     1.6000 </r>
       <r>     8.3008     0.0000     1.6000 </r>
       <r>     8.4266     0.0000     1.6000 </r>
       <r>     8.5525     0.0000     1.6000 </r>
       <r>     8.6783     0.0000     1.6000 </r>
       <r>     8.8041     0.0000     1.6000 </r>
       <r>     8.9299     0.0000     1.6000 </r>
       <r>     9.0557     0.0041     1.6005 </r>
       <r>     9.1816     0.1679     1.6216 </r>
       <r>     9.3074     0.4957     1.6840 </r>
       <r>     9.4332     0.1248     1.6997 </r>
       <r>     9.5590     0.0022     1.7000 </r>
       <r>     9.6848     0.0000     1.7000 </r>
       <r>     9.8107     0.0000     1.7000 </r>
       <r>     9.9365     0.0000     1.7000 </r>
       <r>    10.0623     0.0000     1.7000 </r>
       <r>    10.1881     0.0000     1.7000 </r>
       <r>    10.3139     0.0000     1.7000 </r>
       <r>    10.4398     0.0000     1.7000 </r>
       <r>    10.5656     0.0000     1.7000 </r>
       <r>    10.6914     0.0000     1.7000 </r>
       <r>    10.8172     0.0000     1.7000 </r>
       <r>    10.9430     0.0034     1.7004 </r>
       <r>    11.0689     0.1529     1.7197 </r>
       <r>    11.1947     0.4976     1.7823 </r>
       <r>    11.3205     0.1382     1.7997 </r>
       <r>    11.4463     0.0027     1.8000 </r>
       <r>    11.5721     0.0000     1.8000 </r>
       <r>    11.6980     0.0000     1.8000 </r>
       <r>    11.8238     0.0000     1.8000 </r>
       <r>    11.9496     0.0000     1.8000 </r>
       <r>    12.0754     0.0000     1.8000 </r>
       <r>    12.2012     0.0012     1.8002 </r>
       <r>    12.3271     0.0926     1.8118 </r>
       <r>    12.4529     0.4815     1.8724 </r>
       <r>    12.5787     0.2125     1.8991 </r>
       <r>    12.7045     0.0120     1.9006 </r>
       <r>    12.8303     0.1840     1.9238 </r>
       <r>    12.9561     0.4920     1.9857 </r>
       <r>    13.0820     0.1121     1.9998 </r>
       <r>    13.2078     0.0018     2.0000 </r>
       <r>    13.3336     0.0000     2.0000 </r>
       <r>    13.4594     0.0000     2.0000 </r>
       <r>    13.5852     0.0000     2.0000 </r>
       <r>    13.7111     0.0000     2.0000 </r>
       <r>    13.8369     0.0000     2.0000 </r>
       <r>    13.9627     0.0000     2.0000 </r>
       <r>    14.0885     0.0000     2.0000 </r>
       <r>    14.2143     0.0000     2.0000 </r>
       <r>    14.3402     0.0000     2.0000 </r>
       <r>    14.4660     0.0000     2.0000 </r>
       <r>    14.5918     0.0000     2.0000 </r>
       <r>    14.7176     0.0000     2.0000 </r>
       <r>    14.8434     0.0000     2.0000 </r>
       <r>    14.9693     0.0000     2.0000 </r>
       <r>    15.0951     0.0000     2.0000 </r>
       <r>    15.2209     0.0000     2.0000 </r>
       <r>    15.3467     0.0000     2.0000 </r>
       <r>    15.4725     0.0000     2.0000 </r>
       <r>    15.5984     0.0000     2.0000 </r>
       <r>    15.7242     0.0000     2.0000 </r>
       <r>    15.8500     0.0000     2.0000 </r>
       <r>    15.9758     0.0000     2.0000 </r>
       <r>    16.1016     0.0000     2.0000 </r>
       <r>    16.2275     0.0000     2.0000 </r>
       <r>    16.3533     0.0000     2.0000 </r>
       <r>    16.4791     0.0000     2.0000 </r>
       <r>    16.6049     0.0000     2.0000 </r>
       <r>    16.7307     0.0000     2.0000 </r>
       <r>    16.8566     0.0000     2.0000 </r>
       <r>    16.9824     0.0000     2.0000 </r>
       <r>    17.1082     0.0000     2.0000 </r>
       <r>    17.2340     0.0000     2.0000 </r>
       <r>    17.3598     0.0000     2.0000 </r>
       <r>    17.4857     0.0000     2.0000 </r>
       <r>    17.6115     0.0000     2.0000 </r>
       <r>    17.7373     0.0000     2.0000 </r>
       <r>    17.8631     0.0000     2.0000 </r>
       <r>    17.9889     0.0000     2.0000 </r>
       <r>    18.1148     0.0000     2.0000 </r>
       <r>    18.2406     0.0000     2.0000 </r>
       <r>    18.3664     0.0000     2.0000 </r>
       <r>    18.4922     0.0000     2.0000 </r>
       <r>    18.6180     0.0000     2.0000 </r>
       <r>    18.7439     0.0000     2.0000 </r>
       <r>    18.8697     0.0000     2.0000 </r>
       <r>    18.9955     0.0000     2.0000 </r>
       <r>    19.1213     0.0000     2.0000 </r>
       <r>    19.2471     0.0000     2.0000 </r>
       <r>    19.3730     0.0000     2.0000 </r>
       <r>    19.4988     0.0000     2.0000 </r>
       <r>    19.6246     0.0000     2.0000 </r>
       <r>    19.7504     0.0000     2.0000 </r>
       <r>    19.8762     0.0000     2.0000 </r>
       <r>    20.0020     0.0000     2.0000 </r>
       <r>    20.1279     0.0000     2.0000 </r>
       <r>    20.2537     0.0000     2.0000 </r>
       <r>    20.3795     0.0000     2.0000 </r>
       <r>    20.5053     0.0000     2.0000 </r>
       <r>    20.6311     0.0000     2.0000 </r>
       <r>    20.7570     0.0000     2.0000 </r>
       <r>    20.8828     0.0000     2.0000 </r>
       <r>    21.0086     0.0000     2.0000 </r>
       <r>    21.1344     0.0000     2.0000 </r>
       <r>    21.2602     0.0000     2.0000 </r>
       <r>    21.3861     0.0000     2.0000 </r>
       <r>    21.5119     0.0000     2.0000 </r>
       <r>    21.6377     0.0000     2.0000 </r>
       <r>    21.7635     0.0000     2.0000 </r>
       <r>    21.8893     0.0000     2.0000 </r>
       <r>    22.0152     0.0000     2.0000 </r>
       <r>    22.1410     0.0000     2.0000 </r>
       <r>    22.2668     0.0000     2.0000 </r>
       <r>    22.3926     0.0000     2.0000 </r>
       <r>    22.5184     0.0000     2.0000 </r>
       <r>    22.6443     0.0000     2.0000 </r>
       <r>    22.7701     0.0000     2.0000 </r>
       <r>    22.8959     0.0000     2.0000 </r>
       <r>    23.0217     0.0000     2.0000 </r>
       <r>    23.1475     0.0000     2.0000 </r>
       <r>    23.2734     0.0000     2.0000 </r>
       <r>    23.3992     0.0004     2.0000 </r>
       <r>    23.5250     0.0511     2.0065 </r>
       <r>    23.6508     0.4585     2.0642 </r>
       <r>    23.7766     0.6687     2.1483 </r>
       <r>    23.9025     0.4018     2.1988 </r>
       <r>    24.0283     0.3518     2.2431 </r>
       <r>    24.1541     0.4142     2.2952 </r>
       <r>    24.2799     0.2261     2.3237 </r>
       <r>    24.4057     0.4924     2.3856 </r>
       <r>    24.5316     0.1125     2.3998 </r>
       <r>    24.6574     0.0018     2.4000 </r>
       <r>    24.7832     0.0000     2.4000 </r>
       <r>    24.9090     0.0043     2.4005 </r>
       <r>    25.0348     0.1789     2.4231 </r>
       <r>    25.1607     0.7066     2.5120 </r>
       <r>    25.2865     0.6033     2.5879 </r>
       <r>    25.4123     0.0952     2.5998 </r>
       <r>    25.5381     0.0012     2.6000 </r>
       <r>    25.6639     0.0000     2.6000 </r>
       <r>    25.7898     0.0001     2.6000 </r>
       <r>    25.9156     0.0291     2.6037 </r>
       <r>    26.0414     0.6038     2.6796 </r>
       <r>    26.1672     1.2589     2.8380 </r>
       <r>    26.2930     0.6690     2.9222 </r>
       <r>    26.4189     0.7060     3.0110 </r>
       <r>    26.5447     0.5954     3.0860 </r>
       <r>    26.6705     0.1099     3.0998 </r>
       <r>    26.7963     0.0065     3.1006 </r>
       <r>    26.9221     0.1817     3.1235 </r>
       <r>    27.0480     0.4926     3.1855 </r>
       <r>    27.1738     0.1138     3.1998 </r>
       <r>    27.2996     0.0018     3.2000 </r>
       <r>    27.4254     0.0001     3.2000 </r>
       <r>    27.5512     0.0355     3.2045 </r>
       <r>    27.6770     0.5917     3.2789 </r>
       <r>    27.8029     0.8498     3.3859 </r>
       <r>    27.9287     0.1113     3.3999 </r>
       <r>    28.0545     0.0010     3.4000 </r>
       <r>    28.1803     0.0000     3.4000 </r>
       <r>    28.3061     0.0000     3.4000 </r>
       <r>    28.4320     0.0098     3.4012 </r>
       <r>    28.5578     0.2449     3.4321 </r>
       <r>    28.6836     0.4649     3.4905 </r>
       <r>    28.8094     0.0744     3.4999 </r>
       <r>    28.9352     0.0008     3.5000 </r>
       <r>    29.0611     0.0001     3.5000 </r>
       <r>    29.1869     0.0204     3.5026 </r>
       <r>    29.3127     0.3239     3.5433 </r>
       <r>    29.4385     0.4079     3.5947 </r>
       <r>    29.5643     0.0622     3.6025 </r>
       <r>    29.6902     0.3215     3.6429 </r>
       <r>    29.8160     0.4102     3.6945 </r>
       <r>    29.9418     0.0432     3.7000 </r>
       <r>    30.0676     0.0003     3.7000 </r>
       <r>    30.1934     0.0000     3.7000 </r>
       <r>    30.3193     0.0000     3.7000 </r>
       <r>    30.4451     0.0000     3.7000 </r>
       <r>    30.5709     0.0000     3.7000 </r>
       <r>    30.6967     0.0000     3.7000 </r>
       <r>    30.8225     0.0024     3.7003 </r>
       <r>    30.9484     0.1367     3.7175 </r>
       <r>    31.0742     0.7099     3.8068 </r>
       <r>    31.2000     0.6435     3.8878 </r>
       <r>    31.3258     0.0959     3.8998 </r>
       <r>    31.4516     0.0012     3.9000 </r>
       <r>    31.5775     0.0000     3.9000 </r>
       <r>    31.7033     0.0000     3.9000 </r>
       <r>    31.8291     0.0000     3.9000 </r>
       <r>    31.9549     0.0000     3.9000 </r>
       <r>    32.0807     0.0000     3.9000 </r>
       <r>    32.2066     0.0000     3.9000 </r>
       <r>    32.3324     0.0018     3.9002 </r>
       <r>    32.4582     0.1129     3.9144 </r>
       <r>    32.5840     0.4923     3.9764 </r>
       <r>    32.7098     0.1829     3.9994 </r>
       <r>    32.8357     0.0050     4.0000 </r>
       <r>    32.9615     0.0199     4.0025 </r>
       <r>    33.0873     0.3212     4.0429 </r>
       <r>    33.2131     0.4102     4.0945 </r>
       <r>    33.3389     0.0432     4.1000 </r>
       <r>    33.4648     0.0003     4.1000 </r>
       <r>    33.5906     0.0000     4.1000 </r>
       <r>    33.7164     0.0000     4.1000 </r>
       <r>    33.8422     0.0000     4.1000 </r>
       <r>    33.9680     0.0000     4.1000 </r>
       <r>    34.0939     0.0095     4.1012 </r>
       <r>    34.2197     0.2643     4.1344 </r>
       <r>    34.3455     0.8098     4.2363 </r>
       <r>    34.4713     0.4683     4.2953 </r>
       <r>    34.5971     0.0375     4.3000 </r>
       <r>    34.7229     0.0002     4.3000 </r>
       <r>    34.8488     0.0000     4.3000 </r>
       <r>    34.9746     0.0000     4.3000 </r>
       <r>    35.1004     0.0081     4.3010 </r>
       <r>    35.2262     0.2265     4.3295 </r>
       <r>    35.3520     0.4749     4.3893 </r>
       <r>    35.4779     0.0843     4.3999 </r>
       <r>    35.6037     0.0010     4.4000 </r>
       <r>    35.7295     0.0000     4.4000 </r>
       <r>    35.8553     0.0000     4.4000 </r>
       <r>    35.9811     0.0025     4.4003 </r>
       <r>    36.1070     0.1335     4.4171 </r>
       <r>    36.2328     0.4971     4.4797 </r>
       <r>    36.3586     0.1580     4.4995 </r>
       <r>    36.4844     0.0036     4.5000 </r>
       <r>    36.6102     0.0000     4.5000 </r>
       <r>    36.7361     0.0000     4.5000 </r>
       <r>    36.8619     0.0000     4.5000 </r>
       <r>    36.9877     0.0000     4.5000 </r>
       <r>    37.1135     0.0000     4.5000 </r>
       <r>    37.2393     0.0000     4.5000 </r>
       <r>    37.3652     0.0005     4.5001 </r>
       <r>    37.4910     0.0591     4.5075 </r>
       <r>    37.6168     0.4434     4.5633 </r>
       <r>    37.7426     0.2782     4.5983 </r>
       <r>    37.8684     0.0135     4.6000 </r>
       <r>    37.9943     0.0000     4.6000 </r>
       <r>    38.1201     0.0050     4.6006 </r>
       <r>    38.2459     0.1831     4.6237 </r>
       <r>    38.3717     0.4922     4.6856 </r>
       <r>    38.4975     0.1127     4.6998 </r>
       <r>    38.6234     0.0018     4.7000 </r>
       <r>    38.7492     0.0000     4.7000 </r>
       <r>    38.8750     0.0000     4.7000 </r>
       <r>    39.0008     0.0000     4.7000 </r>
       <r>    39.1266     0.0000     4.7000 </r>
       <r>    39.2525     0.0000     4.7000 </r>
       <r>    39.3783     0.0000     4.7000 </r>
       <r>    39.5041     0.0000     4.7000 </r>
       <r>    39.6299     0.0000     4.7000 </r>
       <r>    39.7557     0.0000     4.7000 </r>
       <r>    39.8816     0.0009     4.7001 </r>
       <r>    40.0074     0.0797     4.7101 </r>
       <r>    40.1332     0.4705     4.7693 </r>
       <r>    40.2590     0.2348     4.7989 </r>
       <r>    40.3848     0.0092     4.8000 </r>
       <r>    40.5107     0.0471     4.8060 </r>
       <r>    40.6365     0.4197     4.8588 </r>
       <r>    40.7623     0.3096     4.8977 </r>
       <r>    40.8881     0.0180     4.9000 </r>
       <r>    41.0139     0.0001     4.9000 </r>
       <r>    41.1398     0.0000     4.9000 </r>
       <r>    41.2656     0.0000     4.9000 </r>
       <r>    41.3914     0.0000     4.9000 </r>
       <r>    41.5172     0.0000     4.9000 </r>
       <r>    41.6430     0.0000     4.9000 </r>
       <r>    41.7689     0.0000     4.9000 </r>
       <r>    41.8947     0.0000     4.9000 </r>
       <r>    42.0205     0.0000     4.9000 </r>
       <r>    42.1463     0.0000     4.9000 </r>
       <r>    42.2721     0.0000     4.9000 </r>
       <r>    42.3979     0.0001     4.9000 </r>
       <r>    42.5238     0.0280     4.9035 </r>
       <r>    42.6496     0.3604     4.9489 </r>
       <r>    42.7754     0.3745     4.9960 </r>
       <r>    42.9012     0.0318     5.0000 </r>
       <r>    43.0270     0.0361     5.0046 </r>
       <r>    43.1529     0.3895     5.0536 </r>
       <r>    43.2787     0.3446     5.0969 </r>
       <r>    43.4045     0.0244     5.1000 </r>
       <r>    43.5303     0.0001     5.1000 </r>
       <r>    43.6561     0.0000     5.1000 </r>
       <r>    43.7820     0.0000     5.1000 </r>
       <r>    43.9078     0.0000     5.1000 </r>
       <r>    44.0336     0.0000     5.1000 </r>
       <r>    44.1594     0.0000     5.1000 </r>
       <r>    44.2852     0.0000     5.1000 </r>
       <r>    44.4111     0.0000     5.1000 </r>
       <r>    44.5369     0.0000     5.1000 </r>
       <r>    44.6627     0.0000     5.1000 </r>
       <r>    44.7885     0.0000     5.1000 </r>
       <r>    44.9143     0.0000     5.1000 </r>
       <r>    45.0402     0.0020     5.1003 </r>
       <r>    45.1660     0.1204     5.1154 </r>
       <r>    45.2918     0.4947     5.1776 </r>
       <r>    45.4176     0.1732     5.1994 </r>
       <r>    45.5434     0.0044     5.2000 </r>
       <r>    45.6693     0.0009     5.2001 </r>
       <r>    45.7951     0.0777     5.2099 </r>
       <r>    45.9209     0.4686     5.2688 </r>
       <r>    46.0467     0.2384     5.2988 </r>
       <r>    46.1725     0.0092     5.3000 </r>
       <r>    46.2984     0.0000     5.3000 </r>
       <r>    46.4242     0.0000     5.3000 </r>
       <r>    46.5500     0.0000     5.3000 </r>
       <r>    46.6758     0.0000     5.3000 </r>
       <r>    46.8016     0.0000     5.3000 </r>
       <r>    46.9275     0.0000     5.3000 </r>
       <r>    47.0533     0.0000     5.3000 </r>
       <r>    47.1791     0.0000     5.3000 </r>
       <r>    47.3049     0.0000     5.3000 </r>
       <r>    47.4307     0.0037     5.3005 </r>
       <r>    47.5566     0.1609     5.3207 </r>
       <r>    47.6824     0.4968     5.3832 </r>
       <r>    47.8082     0.1309     5.3997 </r>
       <r>    47.9340     0.0024     5.4000 </r>
       <r>    48.0598     0.0000     5.4000 </r>
       <r>    48.1857     0.0000     5.4000 </r>
       <r>    48.3115     0.0000     5.4000 </r>
       <r>    48.4373     0.0000     5.4000 </r>
       <r>    48.5631     0.0002     5.4000 </r>
       <r>    48.6889     0.0323     5.4041 </r>
       <r>    48.8148     0.3770     5.4515 </r>
       <r>    48.9406     0.3579     5.4965 </r>
       <r>    49.0664     0.0274     5.5000 </r>
       <r>    49.1922     0.0004     5.5000 </r>
       <r>    49.3180     0.0396     5.5050 </r>
       <r>    49.4439     0.4004     5.5554 </r>
       <r>    49.5697     0.3325     5.5972 </r>
       <r>    49.6955     0.0220     5.6000 </r>
       <r>    49.8213     0.0001     5.6000 </r>
       <r>    49.9471     0.0021     5.6003 </r>
       <r>    50.0729     0.1215     5.6155 </r>
       <r>    50.1988     0.4949     5.6778 </r>
       <r>    50.3246     0.1720     5.6995 </r>
       <r>    50.4504     0.0043     5.7000 </r>
       <r>    50.5762     0.0000     5.7000 </r>
       <r>    50.7020     0.0000     5.7000 </r>
       <r>    50.8279     0.0000     5.7000 </r>
       <r>    50.9537     0.0000     5.7000 </r>
       <r>    51.0795     0.0000     5.7000 </r>
       <r>    51.2053     0.0000     5.7000 </r>
       <r>    51.3311     0.0000     5.7000 </r>
       <r>    51.4570     0.0000     5.7000 </r>
       <r>    51.5828     0.0000     5.7000 </r>
       <r>    51.7086     0.0004     5.7001 </r>
       <r>    51.8344     0.0537     5.7068 </r>
       <r>    51.9602     0.4337     5.7614 </r>
       <r>    52.0861     0.2917     5.7981 </r>
       <r>    52.2119     0.0153     5.8000 </r>
       <r>    52.3377     0.0000     5.8000 </r>
       <r>    52.4635     0.0000     5.8000 </r>
       <r>    52.5893     0.0000     5.8000 </r>
       <r>    52.7152     0.0000     5.8000 </r>
       <r>    52.8410     0.0000     5.8000 </r>
       <r>    52.9668     0.0000     5.8000 </r>
       <r>    53.0926     0.0000     5.8000 </r>
       <r>    53.2184     0.0000     5.8000 </r>
       <r>    53.3443     0.0000     5.8000 </r>
       <r>    53.4701     0.0000     5.8000 </r>
       <r>    53.5959     0.0000     5.8000 </r>
       <r>    53.7217     0.0000     5.8000 </r>
       <r>    53.8475     0.0000     5.8000 </r>
       <r>    53.9734     0.0000     5.8000 </r>
       <r>    54.0992     0.0000     5.8000 </r>
       <r>    54.2250     0.0000     5.8000 </r>
       <r>    54.3508     0.0000     5.8000 </r>
       <r>    54.4766     0.0000     5.8000 </r>
       <r>    54.6025     0.0000     5.8000 </r>
       <r>    54.7283     0.0000     5.8000 </r>
       <r>    54.8541     0.0000     5.8000 </r>
       <r>    54.9799     0.0000     5.8000 </r>
       <r>    55.1057     0.0132     5.8017 </r>
       <r>    55.2316     0.2759     5.8364 </r>
       <r>    55.3574     0.4450     5.8924 </r>
       <r>    55.4832     0.0600     5.8999 </r>
       <r>    55.6090     0.0005     5.9000 </r>
       <r>    55.7348     0.0000     5.9000 </r>
       <r>    55.8607     0.0000     5.9000 </r>
       <r>    55.9865     0.0000     5.9000 </r>
       <r>    56.1123     0.0000     5.9000 </r>
       <r>    56.2381     0.0000     5.9000 </r>
       <r>    56.3639     0.0000     5.9000 </r>
       <r>    56.4898     0.0000     5.9000 </r>
       <r>    56.6156     0.0000     5.9000 </r>
       <r>    56.7414     0.0000     5.9000 </r>
       <r>    56.8672     0.0000     5.9000 </r>
       <r>    56.9930     0.0000     5.9000 </r>
       <r>    57.1188     0.0000     5.9000 </r>
       <r>    57.2447     0.0000     5.9000 </r>
       <r>    57.3705     0.0000     5.9000 </r>
       <r>    57.4963     0.0000     5.9000 </r>
       <r>    57.6221     0.0000     5.9000 </r>
       <r>    57.7479     0.0000     5.9000 </r>
       <r>    57.8738     0.0000     5.9000 </r>
       <r>    57.9996     0.0000     5.9000 </r>
       <r>    58.1254     0.0000     5.9000 </r>
       <r>    58.2512     0.0000     5.9000 </r>
       <r>    58.3770     0.0000     5.9000 </r>
       <r>    58.5029     0.0004     5.9001 </r>
       <r>    58.6287     0.0546     5.9069 </r>
       <r>    58.7545     0.4354     5.9617 </r>
       <r>    58.8803     0.2893     5.9981 </r>
       <r>    59.0061     0.0150     6.0000 </r>
       <r>    59.1320     0.0000     6.0000 </r>
       <r>    59.2578     0.0000     6.0000 </r>
       <r>    59.3836     0.0000     6.0000 </r>
       <r>    59.5094     0.0000     6.0000 </r>
       <r>    59.6352     0.0000     6.0000 </r>
       <r>    59.7611     0.0000     6.0000 </r>
       <r>    59.8869     0.0000     6.0000 </r>
       <r>    60.0127     0.0000     6.0000 </r>
       <r>    60.1385     0.0001     6.0000 </r>
       <r>    60.2643     0.0172     6.0022 </r>
       <r>    60.3902     0.3528     6.0466 </r>
       <r>    60.5160     0.8540     6.1540 </r>
       <r>    60.6418     0.3493     6.1980 </r>
       <r>    60.7676     0.0760     6.2075 </r>
       <r>    60.8934     0.5614     6.2781 </r>
       <r>    61.0193     0.7775     6.3760 </r>
       <r>    61.1451     0.1866     6.3994 </r>
       <r>    61.2709     0.0044     6.4000 </r>
       <r>    61.3967     0.0024     6.4003 </r>
       <r>    61.5225     0.1851     6.4236 </r>
       <r>    61.6484     1.0865     6.5603 </r>
       <r>    61.7742     0.9245     6.6766 </r>
       <r>    61.9000     0.1819     6.6995 </r>
       <r>    62.0258     0.0041     6.7000 </r>
       <r>    62.1516     0.0000     6.7000 </r>
       <r>    62.2775     0.0000     6.7000 </r>
       <r>    62.4033     0.0000     6.7000 </r>
       <r>    62.5291     0.0114     6.7014 </r>
       <r>    62.6549     0.2604     6.7342 </r>
       <r>    62.7807     0.4554     6.7915 </r>
       <r>    62.9066     0.0669     6.7999 </r>
       <r>    63.0324     0.0006     6.8000 </r>
       <r>    63.1582     0.0000     6.8000 </r>
       <r>    63.2840     0.0000     6.8000 </r>
       <r>    63.4098     0.0000     6.8000 </r>
       <r>    63.5357     0.0000     6.8000 </r>
       <r>    63.6615     0.0038     6.8005 </r>
       <r>    63.7873     0.1617     6.8208 </r>
       <r>    63.9131     0.4967     6.8833 </r>
       <r>    64.0389     0.1302     6.8997 </r>
       <r>    64.1648     0.0024     6.9000 </r>
       <r>    64.2906     0.0000     6.9000 </r>
       <r>    64.4164     0.0000     6.9000 </r>
       <r>    64.5422     0.0000     6.9000 </r>
       <r>    64.6680     0.0000     6.9000 </r>
       <r>    64.7938     0.0000     6.9000 </r>
       <r>    64.9197     0.0005     6.9001 </r>
       <r>    65.0455     0.0566     6.9072 </r>
       <r>    65.1713     0.4404     6.9626 </r>
       <r>    65.2971     0.3821     7.0107 </r>
       <r>    65.4229     0.4992     7.0735 </r>
       <r>    65.5488     0.2045     7.0992 </r>
       <r>    65.6746     0.0092     7.1004 </r>
       <r>    65.8004     0.1406     7.1180 </r>
       <r>    65.9262     0.4977     7.1807 </r>
       <r>    66.0520     0.1504     7.1996 </r>
       <r>    66.1779     0.0032     7.2000 </r>
       <r>    66.3037     0.0000     7.2000 </r>
       <r>    66.4295     0.0000     7.2000 </r>
       <r>    66.5553     0.0000     7.2000 </r>
       <r>    66.6811     0.0000     7.2000 </r>
       <r>    66.8070     0.0000     7.2000 </r>
       <r>    66.9328     0.0000     7.2000 </r>
       <r>    67.0586     0.0000     7.2000 </r>
       <r>    67.1844     0.0000     7.2000 </r>
       <r>    67.3102     0.0000     7.2000 </r>
       <r>    67.4361     0.0000     7.2000 </r>
       <r>    67.5619     0.0000     7.2000 </r>
       <r>    67.6877     0.0000     7.2000 </r>
       <r>    67.8135     0.0000     7.2000 </r>
       <r>    67.9393     0.0000     7.2000 </r>
       <r>    68.0652     0.0000     7.2000 </r>
       <r>    68.1910     0.0000     7.2000 </r>
       <r>    68.3168     0.0020     7.2003 </r>
       <r>    68.4426     0.1207     7.2154 </r>
       <r>    68.5684     0.4947     7.2777 </r>
       <r>    68.6943     0.1729     7.2994 </r>
       <r>    68.8201     0.0044     7.3000 </r>
       <r>    68.9459     0.0000     7.3000 </r>
       <r>    69.0717     0.0000     7.3000 </r>
       <r>    69.1975     0.0000     7.3000 </r>
       <r>    69.3234     0.0000     7.3000 </r>
       <r>    69.4492     0.0001     7.3000 </r>
       <r>    69.5750     0.0207     7.3026 </r>
       <r>    69.7008     0.3259     7.3436 </r>
       <r>    69.8266     0.4061     7.3947 </r>
       <r>    69.9525     0.0416     7.4000 </r>
       <r>    70.0783     0.0003     7.4000 </r>
       <r>    70.2041     0.0000     7.4000 </r>
       <r>    70.3299     0.0000     7.4000 </r>
       <r>    70.4557     0.0000     7.4000 </r>
       <r>    70.5816     0.0055     7.4007 </r>
       <r>    70.7074     0.1916     7.4248 </r>
       <r>    70.8332     0.4896     7.4864 </r>
       <r>    70.9590     0.1065     7.4998 </r>
       <r>    71.0848     0.0016     7.5000 </r>
       <r>    71.2107     0.0146     7.5018 </r>
       <r>    71.3365     0.2952     7.5390 </r>
       <r>    71.4623     0.6719     7.6235 </r>
       <r>    71.5881     0.5266     7.6898 </r>
       <r>    71.7139     0.0804     7.6999 </r>
       <r>    71.8398     0.0009     7.7000 </r>
       <r>    71.9656     0.0000     7.7000 </r>
       <r>    72.0914     0.0000     7.7000 </r>
       <r>    72.2172     0.0000     7.7000 </r>
       <r>    72.3430     0.0000     7.7000 </r>
       <r>    72.4688     0.0000     7.7000 </r>
       <r>    72.5947     0.0000     7.7000 </r>
       <r>    72.7205     0.0000     7.7000 </r>
       <r>    72.8463     0.0000     7.7000 </r>
       <r>    72.9721     0.0000     7.7000 </r>
       <r>    73.0979     0.0041     7.7005 </r>
       <r>    73.2238     0.1670     7.7215 </r>
       <r>    73.3496     0.4977     7.7841 </r>
       <r>    73.4754     0.2384     7.8141 </r>
       <r>    73.6012     0.4944     7.8763 </r>
       <r>    73.7270     0.1830     7.8994 </r>
       <r>    73.8529     0.0050     7.9000 </r>
       <r>    73.9787     0.0000     7.9000 </r>
       <r>    74.1045     0.0000     7.9000 </r>
       <r>    74.2303     0.0000     7.9000 </r>
       <r>    74.3561     0.0000     7.9000 </r>
       <r>    74.4820     0.0000     7.9000 </r>
       <r>    74.6078     0.0000     7.9000 </r>
       <r>    74.7336     0.0011     7.9001 </r>
       <r>    74.8594     0.0874     7.9111 </r>
       <r>    74.9852     0.4776     7.9712 </r>
       <r>    75.1111     0.2210     7.9990 </r>
       <r>    75.2369     0.0084     8.0001 </r>
       <r>    75.3627     0.0736     8.0094 </r>
       <r>    75.4885     0.4639     8.0677 </r>
       <r>    75.6143     0.2466     8.0987 </r>
       <r>    75.7402     0.0140     8.1005 </r>
       <r>    75.8660     0.1674     8.1216 </r>
       <r>    75.9918     0.4958     8.1840 </r>
       <r>    76.1176     0.1253     8.1997 </r>
       <r>    76.2434     0.0022     8.2000 </r>
       <r>    76.3693     0.0077     8.2010 </r>
       <r>    76.4951     0.2219     8.2289 </r>
       <r>    76.6209     0.4772     8.2889 </r>
       <r>    76.7467     0.0869     8.2999 </r>
       <r>    76.8725     0.0011     8.3000 </r>
       <r>    76.9984     0.0000     8.3000 </r>
       <r>    77.1242     0.0000     8.3000 </r>
       <r>    77.2500     0.0000     8.3000 </r>
       <r>    77.3758     0.0000     8.3000 </r>
       <r>    77.5016     0.0000     8.3000 </r>
       <r>    77.6275     0.0000     8.3000 </r>
       <r>    77.7533     0.0000     8.3000 </r>
       <r>    77.8791     0.0001     8.3000 </r>
       <r>    78.0049     0.0163     8.3021 </r>
       <r>    78.1307     0.2991     8.3397 </r>
       <r>    78.2566     0.4519     8.3966 </r>
       <r>    78.3824     0.3928     8.4460 </r>
       <r>    78.5082     0.3924     8.4953 </r>
       <r>    78.6340     0.0368     8.5000 </r>
       <r>    78.7598     0.0002     8.5000 </r>
       <r>    78.8857     0.0000     8.5000 </r>
       <r>    79.0115     0.0000     8.5000 </r>
       <r>    79.1373     0.0000     8.5000 </r>
       <r>    79.2631     0.0000     8.5000 </r>
       <r>    79.3889     0.0000     8.5000 </r>
       <r>    79.5147     0.0000     8.5000 </r>
       <r>    79.6406     0.0000     8.5000 </r>
       <r>    79.7664     0.0000     8.5000 </r>
       <r>    79.8922     0.0008     8.5001 </r>
       <r>    80.0180     0.0765     8.5097 </r>
       <r>    80.1438     0.4672     8.5685 </r>
       <r>    80.2697     0.2408     8.5988 </r>
       <r>    80.3955     0.0094     8.6000 </r>
       <r>    80.5213     0.0018     8.6002 </r>
       <r>    80.6471     0.1127     8.6144 </r>
       <r>    80.7729     0.4922     8.6763 </r>
       <r>    80.8988     0.1831     8.6994 </r>
       <r>    81.0246     0.0050     8.7000 </r>
       <r>    81.1504     0.0000     8.7000 </r>
       <r>    81.2762     0.0000     8.7000 </r>
       <r>    81.4020     0.0000     8.7000 </r>
       <r>    81.5279     0.0077     8.7010 </r>
       <r>    81.6537     0.2218     8.7289 </r>
       <r>    81.7795     0.4772     8.7889 </r>
       <r>    81.9053     0.0870     8.7999 </r>
       <r>    82.0311     0.0011     8.8000 </r>
       <r>    82.1570     0.0164     8.8021 </r>
       <r>    82.2828     0.2993     8.8397 </r>
       <r>    82.4086     0.4279     8.8936 </r>
       <r>    82.5344     0.0508     8.9000 </r>
       <r>    82.6602     0.0004     8.9000 </r>
       <r>    82.7861     0.0000     8.9000 </r>
       <r>    82.9119     0.0000     8.9000 </r>
       <r>    83.0377     0.0000     8.9000 </r>
       <r>    83.1635     0.0000     8.9000 </r>
       <r>    83.2893     0.0000     8.9000 </r>
       <r>    83.4152     0.0000     8.9000 </r>
       <r>    83.5410     0.0000     8.9000 </r>
       <r>    83.6668     0.0000     8.9000 </r>
       <r>    83.7926     0.0000     8.9000 </r>
       <r>    83.9184     0.0000     8.9000 </r>
       <r>    84.0443     0.0015     8.9002 </r>
       <r>    84.1701     0.1033     8.9132 </r>
       <r>    84.2959     0.4881     8.9746 </r>
       <r>    84.4217     0.1961     8.9993 </r>
       <r>    84.5475     0.0058     9.0000 </r>
       <r>    84.6734     0.0000     9.0000 </r>
       <r>    84.7992     0.0000     9.0000 </r>
       <r>    84.9250     0.0000     9.0000 </r>
       <r>    85.0508     0.0000     9.0000 </r>
       <r>    85.1766     0.0000     9.0000 </r>
       <r>    85.3025     0.0001     9.0000 </r>
       <r>    85.4283     0.0174     9.0022 </r>
       <r>    85.5541     0.3058     9.0407 </r>
       <r>    85.6799     0.4228     9.0939 </r>
       <r>    85.8057     0.0485     9.1000 </r>
       <r>    85.9316     0.0229     9.1028 </r>
       <r>    86.0574     0.3352     9.1450 </r>
       <r>    86.1832     0.3980     9.1951 </r>
       <r>    86.3090     0.0388     9.2000 </r>
       <r>    86.4348     0.0210     9.2026 </r>
       <r>    86.5607     0.3261     9.2437 </r>
       <r>    86.6865     0.4060     9.2947 </r>
       <r>    86.8123     0.0416     9.3000 </r>
       <r>    86.9381     0.0003     9.3000 </r>
       <r>    87.0639     0.0000     9.3000 </r>
       <r>    87.1897     0.0000     9.3000 </r>
       <r>    87.3156     0.0000     9.3000 </r>
       <r>    87.4414     0.0000     9.3000 </r>
       <r>    87.5672     0.0000     9.3000 </r>
       <r>    87.6930     0.0000     9.3000 </r>
       <r>    87.8188     0.0000     9.3000 </r>
       <r>    87.9447     0.0000     9.3000 </r>
       <r>    88.0705     0.0000     9.3000 </r>
       <r>    88.1963     0.0001     9.3000 </r>
       <r>    88.3221     0.0245     9.3031 </r>
       <r>    88.4479     0.3450     9.3465 </r>
       <r>    88.5738     0.3891     9.3955 </r>
       <r>    88.6996     0.0358     9.4000 </r>
       <r>    88.8254     0.0002     9.4000 </r>
       <r>    88.9512     0.0000     9.4000 </r>
       <r>    89.0770     0.0000     9.4000 </r>
       <r>    89.2029     0.0000     9.4000 </r>
       <r>    89.3287     0.0000     9.4000 </r>
       <r>    89.4545     0.0000     9.4000 </r>
       <r>    89.5803     0.0000     9.4000 </r>
       <r>    89.7061     0.0000     9.4000 </r>
       <r>    89.8320     0.0000     9.4000 </r>
       <r>    89.9578     0.0001     9.4000 </r>
       <r>    90.0836     0.0241     9.4030 </r>
       <r>    90.2094     0.3433     9.4462 </r>
       <r>    90.3352     0.3907     9.4954 </r>
       <r>    90.4611     0.0363     9.5000 </r>
       <r>    90.5869     0.0002     9.5000 </r>
       <r>    90.7127     0.0010     9.5001 </r>
       <r>    90.8385     0.0852     9.5108 </r>
       <r>    90.9643     0.4757     9.5707 </r>
       <r>    91.0902     0.2249     9.5990 </r>
       <r>    91.2160     0.0080     9.6000 </r>
       <r>    91.3418     0.0000     9.6000 </r>
       <r>    91.4676     0.0000     9.6000 </r>
       <r>    91.5934     0.0000     9.6000 </r>
       <r>    91.7193     0.0000     9.6000 </r>
       <r>    91.8451     0.0000     9.6000 </r>
       <r>    91.9709     0.0000     9.6000 </r>
       <r>    92.0967     0.0000     9.6000 </r>
       <r>    92.2225     0.0000     9.6000 </r>
       <r>    92.3484     0.0000     9.6000 </r>
       <r>    92.4742     0.0000     9.6000 </r>
       <r>    92.6000     0.0000     9.6000 </r>
       <r>    92.7258     0.0000     9.6000 </r>
       <r>    92.8516     0.0000     9.6000 </r>
       <r>    92.9775     0.0000     9.6000 </r>
       <r>    93.1033     0.0000     9.6000 </r>
       <r>    93.2291     0.0000     9.6000 </r>
       <r>    93.3549     0.0000     9.6000 </r>
       <r>    93.4807     0.0000     9.6000 </r>
       <r>    93.6066     0.0000     9.6000 </r>
       <r>    93.7324     0.0000     9.6000 </r>
       <r>    93.8582     0.0000     9.6000 </r>
       <r>    93.9840     0.0000     9.6000 </r>
       <r>    94.1098     0.0000     9.6000 </r>
       <r>    94.2356     0.0000     9.6000 </r>
       <r>    94.3615     0.0000     9.6000 </r>
       <r>    94.4873     0.0000     9.6000 </r>
       <r>    94.6131     0.0000     9.6000 </r>
       <r>    94.7389     0.0000     9.6000 </r>
       <r>    94.8647     0.0000     9.6000 </r>
       <r>    94.9906     0.0000     9.6000 </r>
       <r>    95.1164     0.0000     9.6000 </r>
       <r>    95.2422     0.0000     9.6000 </r>
       <r>    95.3680     0.0000     9.6000 </r>
       <r>    95.4938     0.0000     9.6000 </r>
       <r>    95.6197     0.0000     9.6000 </r>
       <r>    95.7455     0.0000     9.6000 </r>
       <r>    95.8713     0.0056     9.6007 </r>
       <r>    95.9971     0.1926     9.6249 </r>
       <r>    96.1229     0.4893     9.6865 </r>
       <r>    96.2488     0.1058     9.6998 </r>
       <r>    96.3746     0.0016     9.7000 </r>
       <r>    96.5004     0.0000     9.7000 </r>
       <r>    96.6262     0.0000     9.7000 </r>
       <r>    96.7520     0.0000     9.7000 </r>
       <r>    96.8779     0.0000     9.7000 </r>
       <r>    97.0037     0.0000     9.7000 </r>
       <r>    97.1295     0.0000     9.7000 </r>
       <r>    97.2553     0.0000     9.7000 </r>
       <r>    97.3811     0.0041     9.7005 </r>
       <r>    97.5070     0.1673     9.7216 </r>
       <r>    97.6328     0.4958     9.7839 </r>
       <r>    97.7586     0.1254     9.7997 </r>
       <r>    97.8844     0.0024     9.8000 </r>
       <r>    98.0102     0.0377     9.8048 </r>
       <r>    98.1361     0.3950     9.8545 </r>
       <r>    98.2619     0.3386     9.8971 </r>
       <r>    98.3877     0.0232     9.9000 </r>
       <r>    98.5135     0.0001     9.9000 </r>
       <r>    98.6393     0.0001     9.9000 </r>
       <r>    98.7652     0.0189     9.9024 </r>
       <r>    98.8910     0.3154     9.9421 </r>
       <r>    99.0168     0.4150     9.9943 </r>
       <r>    99.1426     0.0451    10.0000 </r>
       <r>    99.2684     0.0089    10.0011 </r>
       <r>    99.3943     0.2331    10.0304 </r>
       <r>    99.5201     0.6213    10.1086 </r>
       <r>    99.6459     1.0113    10.2358 </r>
       <r>    99.7717     0.4904    10.2975 </r>
       <r>    99.8975     0.0198    10.3000 </r>
       <r>   100.0234     0.0394    10.3050 </r>
       <r>   100.1492     0.3997    10.3553 </r>
       <r>   100.2750     0.3332    10.3972 </r>
       <r>   100.4008     0.0221    10.4000 </r>
       <r>   100.5266     0.0108    10.4014 </r>
       <r>   100.6525     0.2588    10.4339 </r>
       <r>   100.7783     0.6410    10.5146 </r>
       <r>   100.9041     0.5625    10.5854 </r>
       <r>   101.0299     0.1146    10.5998 </r>
       <r>   101.1557     0.0023    10.6001 </r>
       <r>   101.2816     0.0586    10.6074 </r>
       <r>   101.4074     0.4426    10.6631 </r>
       <r>   101.5332     0.2794    10.6983 </r>
       <r>   101.6590     0.0137    10.7000 </r>
       <r>   101.7848     0.0000    10.7000 </r>
       <r>   101.9106     0.0000    10.7000 </r>
       <r>   102.0365     0.0065    10.7008 </r>
       <r>   102.1623     0.2062    10.7268 </r>
       <r>   102.2881     0.4842    10.7877 </r>
       <r>   102.4139     0.0966    10.7998 </r>
       <r>   102.5397     0.0013    10.8000 </r>
       <r>   102.6656     0.0000    10.8000 </r>
       <r>   102.7914     0.0000    10.8000 </r>
       <r>   102.9172     0.0000    10.8000 </r>
       <r>   103.0430     0.0000    10.8000 </r>
       <r>   103.1688     0.0000    10.8000 </r>
       <r>   103.2947     0.0000    10.8000 </r>
       <r>   103.4205     0.0000    10.8000 </r>
       <r>   103.5463     0.0000    10.8000 </r>
       <r>   103.6721     0.0000    10.8000 </r>
       <r>   103.7979     0.0000    10.8000 </r>
       <r>   103.9238     0.0000    10.8000 </r>
       <r>   104.0496     0.0000    10.8000 </r>
       <r>   104.1754     0.0000    10.8000 </r>
       <r>   104.3012     0.0000    10.8000 </r>
       <r>   104.4270     0.0000    10.8000 </r>
       <r>   104.5529     0.0000    10.8000 </r>
       <r>   104.6787     0.0000    10.8000 </r>
       <r>   104.8045     0.0000    10.8000 </r>
       <r>   104.9303     0.0000    10.8000 </r>
       <r>   105.0561     0.0000    10.8000 </r>
       <r>   105.1820     0.0000    10.8000 </r>
       <r>   105.3078     0.0146    10.8018 </r>
       <r>   105.4336     0.2865    10.8379 </r>
       <r>   105.5594     0.4375    10.8929 </r>
       <r>   105.6852     0.0557    10.8999 </r>
       <r>   105.8111     0.0005    10.9000 </r>
       <r>   105.9369     0.0000    10.9000 </r>
       <r>   106.0627     0.0000    10.9000 </r>
       <r>   106.1885     0.0000    10.9000 </r>
       <r>   106.3143     0.0000    10.9000 </r>
       <r>   106.4402     0.0000    10.9000 </r>
       <r>   106.5660     0.0000    10.9000 </r>
       <r>   106.6918     0.0000    10.9000 </r>
       <r>   106.8176     0.0002    10.9000 </r>
       <r>   106.9434     0.0334    10.9042 </r>
       <r>   107.0693     0.5719    10.9762 </r>
       <r>   107.1951     1.3364    11.1443 </r>
       <r>   107.3209     0.4300    11.1984 </r>
       <r>   107.4467     0.0125    11.2000 </r>
       <r>   107.5725     0.0000    11.2000 </r>
       <r>   107.6984     0.0000    11.2000 </r>
       <r>   107.8242     0.0000    11.2000 </r>
       <r>   107.9500     0.0001    11.2000 </r>
       <r>   108.0758     0.0217    11.2027 </r>
       <r>   108.2016     0.3313    11.2444 </r>
       <r>   108.3275     0.4078    11.2957 </r>
       <r>   108.4533     0.2439    11.3264 </r>
       <r>   108.5791     0.4854    11.3875 </r>
       <r>   108.7049     0.0981    11.3998 </r>
       <r>   108.8307     0.0013    11.4000 </r>
       <r>   108.9566     0.0000    11.4000 </r>
       <r>   109.0824     0.0000    11.4000 </r>
       <r>   109.2082     0.0000    11.4000 </r>
       <r>   109.3340     0.0000    11.4000 </r>
       <r>   109.4598     0.0000    11.4000 </r>
       <r>   109.5856     0.0000    11.4000 </r>
       <r>   109.7115     0.0001    11.4000 </r>
       <r>   109.8373     0.0196    11.4025 </r>
       <r>   109.9631     0.3196    11.4427 </r>
       <r>   110.0889     0.4115    11.4945 </r>
       <r>   110.2147     0.0437    11.5000 </r>
       <r>   110.3406     0.0003    11.5000 </r>
       <r>   110.4664     0.0000    11.5000 </r>
       <r>   110.5922     0.0000    11.5000 </r>
       <r>   110.7180     0.0000    11.5000 </r>
       <r>   110.8438     0.0000    11.5000 </r>
       <r>   110.9697     0.0000    11.5000 </r>
       <r>   111.0955     0.0000    11.5000 </r>
       <r>   111.2213     0.0000    11.5000 </r>
       <r>   111.3471     0.0000    11.5000 </r>
       <r>   111.4729     0.0000    11.5000 </r>
       <r>   111.5988     0.0000    11.5000 </r>
       <r>   111.7246     0.0000    11.5000 </r>
       <r>   111.8504     0.0000    11.5000 </r>
       <r>   111.9762     0.0000    11.5000 </r>
[...]
        <r>  0.0110  0.0124  0.0262  0.1841  0.0000  0.0000  0.0000  0.0000  0.0000 </r>
       </set>
       <set comment="band 7">
        <r>  0.0428  0.7988  0.0012  0.0515  0.0000  0.0000  0.0000  0.0000  0.0000 </r>
       </set>
       <set comment="band 8">
        <r>  0.1052  0.5708  0.0025  0.0758  0.0000  0.0000  0.0000  0.0000  0.0000 </r>
       </set>
      </set>
      <set comment="kpoint 4">
       <set comment="band 1">
        <r>  0.5814  0.0175  0.0000  0.0175  0.0000  0.0000  0.0000  0.0000  0.0000 </r>
       </set>
       <set comment="band 2">
        <r>  0.1358  0.0773  0.0000  0.0774  0.0000  0.0000  0.0000  0.0000  0.0000 </r>
       </set>
       <set comment="band 3">
        <r>  0.0000  0.1869  0.0000  0.1860  0.0000  0.0000  0.0000  0.0000  0.0000 </r>
       </set>
       <set comment="band 4">
        <r>  0.2104  0.0654  0.0040  0.0660  0.0000  0.0000  0.0000  0.0000  0.0000 </r>
       </set>
       <set comment="band 5">
        <r>  0.0142  0.1586  0.5792  0.0051  0.0000  0.0000  0.0000  0.0000  0.0000 </r>
       </set>
       <set comment="band 6">
        <r>  0.0074  0.0522  0.8104  0.0176  0.0000  0.0000  0.0000  0.0000  0.0000 </r>
       </set>
       <set comment="band 7">
        <r>  0.0463  1.0093  0.0005  0.0105  0.0000  0.0000  0.0000  0.0000  0.0000 </r>
       </set>
       <set comment="band 8">
        <r>  0.1368  0.0012  0.0012  0.0312  0.0000  0.0000  0.0000  0.0000  0.0000 </r>
       </set>
      </set>
      <set comment="kpoint 5">
       <set comment="band 1">
        <r>  0.5216  0.0204  0.0000  0.0204  0.0000  0.0000  0.0000  0.0000  0.0000 </r>
       </set>
       <set comment="band 2">
        <r>  0.1860  0.0663  0.0000  0.0663  0.0000  0.0000  0.0000  0.0000  0.0000 </r>
       </set>
       <set comment="band 3">
        <r>  0.0000  0.1873  0.0000  0.1872  0.0000  0.0000  0.0000  0.0000  0.0000 </r>
       </set>
       <set comment="band 4">
        <r>  0.1810  0.0804  0.0198  0.0817  0.0000  0.0000  0.0000  0.0000  0.0000 </r>
       </set>
       <set comment="band 5">
        <r>  0.0532  0.0230  0.6072  0.1139  0.0000  0.0000  0.0000  0.0000  0.0000 </r>
       </set>
       <set comment="band 6">
        <r>  0.0343  0.7789  0.0005  0.0357  0.0000  0.0000  0.0000  0.0000  0.0000 </r>
       </set>
       <set comment="band 7">
        <r>  0.0580  0.2763  0.0375  0.6235  0.0000  0.0000  0.0000  0.0000  0.0000 </r>
       </set>
       <set comment="band 8">
        <r>  0.1475  0.6764  0.0624  0.1101  0.0000  0.0000  0.0000  0.0000  0.0000 </r>
       </set>
      </set>
      <set comment="kpoint 6">
       <set comment="band 1">
        <r>  0.4795  0.0207  0.0000  0.0207  0.0000  0.0000  0.0000  0.0000  0.0000 </r>
       </set>
       <set comment="band 2">
        <r>  0.2214  0.0612  0.0000  0.0612  0.0000  0.0000  0.0000  0.0000  0.0000 </r>
       </set>
       <set comment="band 3">
        <r>  0.0000  0.1885  0.0000  0.1883  0.0000  0.0000  0.0000  0.0000  0.0000 </r>
       </set>
       <set comment="band 4">
        <r>  0.1401  0.0809  0.1459  0.0802  0.0000  0.0000  0.0000  0.0000  0.0000 </r>
       </set>
       <set comment="band 5">
        <r>  0.0157  0.0159  1.1766  0.0183  0.0000  0.0000  0.0000  0.0000  0.0000 </r>
       </set>
       <set comment="band 6">
        <r>  0.0969  0.0820  0.0360  0.0707  0.0000  0.0000  0.0000  0.0000  0.0000 </r>
       </set>
       <set comment="band 7">
        <r>  0.0060  0.4230  0.2959  0.0446  0.0000  0.0000  0.0000  0.0000  0.0000 </r>
       </set>
       <set comment="band 8">
        <r>  0.0005  0.2098  0.0508  0.0326  0.0000  0.0000  0.0000  0.0000  0.0000 </r>
       </set>
      </set>
      <set comment="kpoint 7">
       <set comment="band 1">
        <r>  0.4514  0.0192  0.0000  0.0192  0.0000  0.0000  0.0000  0.0000  0.0000 </r>
       </set>
       <set comment="band 2">
        <r>  0.2449  0.0599  0.0000  0.0600  0.0000  0.0000  0.0000  0.0000  0.0000 </r>
       </set>
       <set comment="band 3">
        <r>  0.0000  0.1900  0.0000  0.1895  0.0000  0.0000  0.0000  0.0000  0.0000 </r>
       </set>
       <set comment="band 4">
        <r>  0.1392  0.0932  0.0055  0.1118  0.0000  0.0000  0.0000  0.0000  0.0000 </r>
       </set>
       <set comment="band 5">
        <r>  0.0015  0.0005  1.1027  0.0000  0.0000  0.0000  0.0000  0.0000  0.0000 </r>
       </set>
       <set comment="band 6">
        <r>  0.0771  0.0306  0.3358  0.1207  0.0000  0.0000  0.0000  0.0000  0.0000 </r>
       </set>
       <set comment="band 7">
        <r>  0.0281  1.0718  0.0168  0.0488  0.0000  0.0000  0.0000  0.0000  0.0000 </r>
       </set>
       <set comment="band 8">
        <r>  0.0174  0.1187  0.1321  1.5238  0.0000  0.0000  0.0000  0.0000  0.0000 </r>
       </set>
      </set>
      <set comment="kpoint 8">
       <set comment="band 1">
        <r>  0.4332  0.0170  0.0000  0.0170  0.0000  0.0000  0.0000  0.0000  0.0000 </r>
       </set>
       <set comment="band 2">
        <r>  0.2604  0.0612  0.0000  0.0612  0.0000  0.0000  0.0000  0.0000  0.0000 </r>
       </set>
       <set comment="band 3">
        <r>  0.0000  0.1914  0.0000  0.1912  0.0000  0.0000  0.0000  0.0000  0.0000 </r>
       </set>
       <set comment="band 4">
        <r>  0.1264  0.1091  0.0090  0.1060  0.0000  0.0000  0.0000  0.0000  0.0000 </r>
       </set>
       <set comment="band 5">
        <r>  0.0025  0.0004  1.0316  0.0004  0.0000  0.0000  0.0000  0.0000  0.0000 </r>
       </set>
       <set comment="band 6">
        <r>  0.0588  0.0965  0.5914  0.0087  0.0000  0.0000  0.0000  0.0000  0.0000 </r>
       </set>
       <set comment="band 7">
        <r>  0.0049  0.9409  0.3020  0.1286  0.0000  0.0000  0.0000  0.0000  0.0000 </r>
       </set>
       <set comment="band 8">
        <r>  0.2082  0.0117  0.2064  0.0018  0.0000  0.0000  0.0000  0.0000  0.0000 </r>
       </set>
      </set>
      <set comment="kpoint 9">
       <set comment="band 1">
        <r>  0.4213  0.0159  0.0000  0.0159  0.0000  0.0000  0.0000  0.0000  0.0000 </r>
       </set>
       <set comment="band 2">
        <r>  0.2706  0.0631  0.0000  0.0631  0.0000  0.0000  0.0000  0.0000  0.0000 </r>
       </set>
       <set comment="band 3">
        <r>  0.0000  0.1932  0.0000  0.1932  0.0000  0.0000  0.0000  0.0000  0.0000 </r>
       </set>
       <set comment="band 4">
        <r>  0.1107  0.1247  0.0244  0.1226  0.0000  0.0000  0.0000  0.0000  0.0000 </r>
       </set>
       <set comment="band 5">
        <r>  0.0016  0.0051  0.9864  0.0046  0.0000  0.0000  0.0000  0.0000  0.0000 </r>
       </set>
       <set comment="band 6">
        <r>  0.0304  0.2699  0.0230  0.3005  0.0000  0.0000  0.0000  0.0000  0.0000 </r>
       </set>
       <set comment="band 7">
        <r>  0.0687  0.2016  0.0776  0.0014  0.0000  0.0000  0.0000  0.0000  0.0000 </r>
       </set>
       <set comment="band 8">
        <r>  0.0936  0.1437  0.0658  0.6957  0.0000  0.0000  0.0000  0.0000  0.0000 </r>
       </set>
      </set>
      <set comment="kpoint 10">
       <set comment="band 1">
        <r>  0.4145  0.0143  0.0000  0.0143  0.0000  0.0000  0.0000  0.0000  0.0000 </r>
       </set>
       <set comment="band 2">
        <r>  0.2781  0.0612  0.0000  0.0612  0.0000  0.0000  0.0000  0.0000  0.0000 </r>
       </set>
       <set comment="band 3">
        <r>  0.0000  0.1941  0.0000  0.1941  0.0000  0.0000  0.0000  0.0000  0.0000 </r>
       </set>
       <set comment="band 4">
        <r>  0.1669  0.0271  0.0000  0.0266  0.0000  0.0000  0.0000  0.0000  0.0000 </r>
       </set>
       <set comment="band 5">
        <r>  0.0017  0.0178  0.8950  0.0177  0.0000  0.0000  0.0000  0.0000  0.0000 </r>
       </set>
       <set comment="band 6">
        <r>  0.0569  0.0715  0.0944  0.2647  0.0000  0.0000  0.0000  0.0000  0.0000 </r>
       </set>
       <set comment="band 7">
        <r>  0.0387  0.3392  0.1517  0.0051  0.0000  0.0000  0.0000  0.0000  0.0000 </r>
       </set>
       <set comment="band 8">
        <r>  0.0173  0.9625  0.1450  0.0798  0.0000  0.0000  0.0000  0.0000  0.0000 </r>
       </set>
      </set>
      <set comment="kpoint 11">
       <set comment="band 1">
        <r>  0.4105  0.0115  0.0000  0.0115  0.0000  0.0000  0.0000  0.0000  0.0000 </r>
       </set>
       <set comment="band 2">
        <r>  0.2838  0.0655  0.0000  0.0667  0.0000  0.0000  0.0000  0.0000  0.0000 </r>
       </set>
       <set comment="band 3">
        <r>  0.0000  0.1967  0.0000  0.1962  0.0000  0.0000  0.0000  0.0000  0.0000 </r>
       </set>
       <set comment="band 4">
        <r>  0.0045  0.0038  0.9003  0.0039  0.0000  0.0000  0.0000  0.0000  0.0000 </r>
       </set>
       <set comment="band 5">
        <r>  0.1159  0.3953  0.0149  0.0412  0.0000  0.0000  0.0000  0.0000  0.0000 </r>
       </set>
       <set comment="band 6">
        <r>  0.0032  0.4181  0.0431  0.1528  0.0000  0.0000  0.0000  0.0000  0.0000 </r>
       </set>
       <set comment="band 7">
        <r>  0.0113  0.2222  0.0065  0.0990  0.0000  0.0000  0.0000  0.0000  0.0000 </r>
       </set>
       <set comment="band 8">
        <r>  0.1650  0.0625  0.0014  0.4482  0.0000  0.0000  0.0000  0.0000  0.0000 </r>
       </set>
      </set>
      <set comment="kpoint 12">
       <set comment="band 1">
        <r>  0.4084  0.0090  0.0000  0.0090  0.0000  0.0000  0.0000  0.0000  0.0000 </r>
       </set>
       <set comment="band 2">
        <r>  0.2889  0.0716  0.0000  0.0716  0.0000  0.0000  0.0000  0.0000  0.0000 </r>
       </set>
       <set comment="band 3">
        <r>  0.0000  0.1995  0.0000  0.1995  0.0000  0.0000  0.0000  0.0000  0.0000 </r>
       </set>
       <set comment="band 4">
        <r>  0.1568  0.0396  0.0000  0.0395  0.0000  0.0000  0.0000  0.0000  0.0000 </r>
       </set>
       <set comment="band 5">
        <r>  0.0016  0.2971  0.1300  0.1478  0.0000  0.0000  0.0000  0.0000  0.0000 </r>
       </set>
       <set comment="band 6">
        <r>  0.0288  0.3429  0.0923  0.2983  0.0000  0.0000  0.0000  0.0000  0.0000 </r>
       </set>
       <set comment="band 7">
        <r>  0.1107  0.1623  0.0632  0.2294  0.0000  0.0000  0.0000  0.0000  0.0000 </r>
       </set>
       <set comment="band 8">
        <r>  0.0047  0.0013  1.0411  0.0060  0.0000  0.0000  0.0000  0.0000  0.0000 </r>
       </set>
      </set>
      <set comment="kpoint 13">
       <set comment="band 1">
        <r>  0.4077  0.0067  0.0000  0.0067  0.0000  0.0000  0.0000  0.0000  0.0000 </r>
       </set>
       <set comment="band 2">
        <r>  0.2948  0.0772  0.0000  0.0772  0.0000  0.0000  0.0000  0.0000  0.0000 </r>
       </set>
       <set comment="band 3">
        <r>  0.0000  0.2028  0.0000  0.2028  0.0000  0.0000  0.0000  0.0000  0.0000 </r>
       </set>
       <set comment="band 4">
        <r>  0.1457  0.0491  0.0000  0.0490  0.0000  0.0000  0.0000  0.0000  0.0000 </r>
       </set>
       <set comment="band 5">
        <r>  0.0927  0.1003  0.0001  0.0003  0.0000  0.0000  0.0000  0.0000  0.0000 </r>
       </set>
       <set comment="band 6">
        <r>  0.0198  0.6494  0.0001  0.5671  0.0000  0.0000  0.0000  0.0000  0.0000 </r>
       </set>
       <set comment="band 7">
        <r>  0.0742  0.7052  0.0964  0.2328  0.0000  0.0000  0.0000  0.0000  0.0000 </r>
       </set>
       <set comment="band 8">
        <r>  0.0542  0.0243  0.2806  0.7706  0.0000  0.0000  0.0000  0.0000  0.0000 </r>
       </set>
      </set>
      <set comment="kpoint 14">
       <set comment="band 1">
        <r>  0.4079  0.0047  0.0000  0.0047  0.0000  0.0000  0.0000  0.0000  0.0000 </r>
       </set>
       <set comment="band 2">
        <r>  0.3029  0.0823  0.0000  0.0823  0.0000  0.0000  0.0000  0.0000  0.0000 </r>
       </set>
       <set comment="band 3">
        <r>  0.0000  0.2065  0.0000  0.2065  0.0000  0.0000  0.0000  0.0000  0.0000 </r>
       </set>
       <set comment="band 4">
        <r>  0.1362  0.0569  0.0000  0.0568  0.0000  0.0000  0.0000  0.0000  0.0000 </r>
       </set>
       <set comment="band 5">
        <r>  0.0146  0.2134  0.0000  0.8100  0.0000  0.0000  0.0000  0.0000  0.0000 </r>
       </set>
       <set comment="band 6">
        <r>  0.0595  0.4903  0.0192  0.0191  0.0000  0.0000  0.0000  0.0000  0.0000 </r>
       </set>
       <set comment="band 7">
        <r>  0.0638  0.0320  0.7529  0.1282  0.0000  0.0000  0.0000  0.0000  0.0000 </r>
       </set>
       <set comment="band 8">
        <r>  0.0080  0.1906  0.5854  0.0032  0.0000  0.0000  0.0000  0.0000  0.0000 </r>
       </set>
      </set>
      <set comment="kpoint 15">
       <set comment="band 1">
        <r>  0.4089  0.0036  0.0000  0.0036  0.0000  0.0000  0.0000  0.0000  0.0000 </r>
       </set>
       <set comment="band 2">
        <r>  0.3149  0.0797  0.0000  0.0797  0.0000  0.0000  0.0000  0.0000  0.0000 </r>
       </set>
       <set comment="band 3">
        <r>  0.0000  0.2046  0.0000  0.2046  0.0000  0.0000  0.0000  0.0000  0.0000 </r>
       </set>
       <set comment="band 4">
        <r>  0.1256  0.0676  0.0001  0.0671  0.0000  0.0000  0.0000  0.0000  0.0000 </r>
       </set>
       <set comment="band 5">
        <r>  0.0637  0.3889  0.0017  0.0393  0.0000  0.0000  0.0000  0.0000  0.0000 </r>
       </set>
       <set comment="band 6">
        <r>  0.1301  0.7325  0.0049  0.0541  0.0000  0.0000  0.0000  0.0000  0.0000 </r>
       </set>
       <set comment="band 7">
        <r>  0.0384  0.1454  0.1419  0.0577  0.0000  0.0000  0.0000  0.0000  0.0000 </r>
       </set>
       <set comment="band 8">
        <r>  0.0487  0.0355  0.0306  0.2658  0.0000  0.0000  0.0000  0.0000  0.0000 </r>
       </set>
      </set>
      <set comment="kpoint 16">
       <set comment="band 1">
        <r>  0.4094  0.0025  0.0000  0.0025  0.0000  0.0000  0.0000  0.0000  0.0000 </r>
       </set>
       <set comment="band 2">
        <r>  0.3342  0.0773  0.0000  0.0773  0.0000  0.0000  0.0000  0.0000  0.0000 </r>
       </set>
       <set comment="band 3">
        <r>  0.0000  0.2115  0.0000  0.2115  0.0000  0.0000  0.0000  0.0000  0.0000 </r>
       </set>
       <set comment="band 4">
        <r>  0.1122  0.0851  0.0001  0.0842  0.0000  0.0000  0.0000  0.0000  0.0000 </r>
       </set>
       <set comment="band 5">
        <r>  0.0551  0.3562  0.0002  0.1896  0.0000  0.0000  0.0000  0.0000  0.0000 </r>
       </set>
       <set comment="band 6">
        <r>  0.1091  0.3930  0.0335  0.4225  0.0000  0.0000  0.0000  0.0000  0.0000 </r>
       </set>
       <set comment="band 7">
        <r>  0.0250  0.0502  0.0947  0.5329  0.0000  0.0000  0.0000  0.0000  0.0000 </r>
       </set>
       <set comment="band 8">
        <r>  0.0125  0.2340  0.4430  0.0224  0.0000  0.0000  0.0000  0.0000  0.0000 </r>
       </set>
      </set>
      <set comment="kpoint 17">
       <set comment="band 1">
        <r>  0.4104  0.0016  0.0000  0.0016  0.0000  0.0000  0.0000  0.0000  0.0000 </r>
       </set>
       <set comment="band 2">
        <r>  0.3644  0.0646  0.0000  0.0646  0.0000  0.0000  0.0000  0.0000  0.0000 </r>
       </set>
       <set comment="band 3">
        <r>  0.0000  0.2182  0.0000  0.2182  0.0000  0.0000  0.0000  0.0000  0.0000 </r>
       </set>
       <set comment="band 4">
        <r>  0.0919  0.1109  0.0002  0.1108  0.0000  0.0000  0.0000  0.0000  0.0000 </r>
       </set>
       <set comment="band 5">
        <r>  0.0021  0.1139  0.0000  0.3039  0.0000  0.0000  0.0000  0.0000  0.0000 </r>
       </set>
       <set comment="band 6">
        <r>  0.1084  0.0052  0.0328  0.4125  0.0000  0.0000  0.0000  0.0000  0.0000 </r>
       </set>
       <set comment="band 7">
        <r>  0.0032  0.3940  0.1716  0.0924  0.0000  0.0000  0.0000  0.0000  0.0000 </r>
       </set>
       <set comment="band 8">
        <r>  0.1081  0.2198  0.1854  0.7785  0.0000  0.0000  0.0000  0.0000  0.0000 </r>
       </set>
      </set>
      <set comment="kpoint 18">
       <set comment="band 1">
        <r>  0.4111  0.0007  0.0000  0.0007  0.0000  0.0000  0.0000  0.0000  0.0000 </r>
       </set>
       <set comment="band 2">
        <r>  0.4102  0.0464  0.0000  0.0464  0.0000  0.0000  0.0000  0.0000  0.0000 </r>
       </set>
       <set comment="band 3">
        <r>  0.0000  0.2309  0.0000  0.2307  0.0000  0.0000  0.0000  0.0000  0.0000 </r>
       </set>
       <set comment="band 4">
        <r>  0.0608  0.1573  0.0002  0.1593  0.0000  0.0000  0.0000  0.0000  0.0000 </r>
       </set>
       <set comment="band 5">
        <r>  0.0246  0.2258  0.0000  0.2144  0.0000  0.0000  0.0000  0.0000  0.0000 </r>
       </set>
       <set comment="band 6">
        <r>  0.0000  0.1868  0.0002  0.1979  0.0000  0.0000  0.0000  0.0000  0.0000 </r>
       </set>
       <set comment="band 7">
        <r>  0.1836  0.0830  0.0535  0.3471  0.0000  0.0000  0.0000  0.0000  0.0000 </r>
       </set>
       <set comment="band 8">
        <r>  0.0459  0.5776  0.0331  0.3692  0.0000  0.0000  0.0000  0.0000  0.0000 </r>
       </set>
      </set>
      <set comment="kpoint 19">
       <set comment="band 1">
        <r>  0.4115  0.0002  0.0000  0.0002  0.0000  0.0000  0.0000  0.0000  0.0000 </r>
       </set>
       <set comment="band 2">
        <r>  0.4649  0.0171  0.0000  0.0177  0.0000  0.0000  0.0000  0.0000  0.0000 </r>
       </set>
       <set comment="band 3">
        <r>  0.0000  0.2604  0.0000  0.2600  0.0000  0.0000  0.0000  0.0000  0.0000 </r>
       </set>
       <set comment="band 4">
        <r>  0.0226  0.2545  0.0003  0.2532  0.0000  0.0000  0.0000  0.0000  0.0000 </r>
       </set>
       <set comment="band 5">
        <r>  0.0062  0.0999  0.0004  0.2040  0.0000  0.0000  0.0000  0.0000  0.0000 </r>
       </set>
       <set comment="band 6">
        <r>  0.1809  0.4213  0.0130  0.2071  0.0000  0.0000  0.0000  0.0000  0.0000 </r>
       </set>
       <set comment="band 7">
        <r>  0.0074  0.0296  0.9061  0.0270  0.0000  0.0000  0.0000  0.0000  0.0000 </r>
       </set>
       <set comment="band 8">
        <r>  0.0047  0.2374  0.0830  0.1031  0.0000  0.0000  0.0000  0.0000  0.0000 </r>
       </set>
      </set>
      <set comment="kpoint 20">
       <set comment="band 1">
        <r>  0.4117  0.0000  0.0000  0.0000  0.0000  0.0000  0.0000  0.0000  0.0000 </r>
       </set>
       <set comment="band 2">
        <r>  0.4932  0.0000  0.0000  0.0000  0.0000  0.0000  0.0000  0.0000  0.0000 </r>
       </set>
       <set comment="band 3">
        <r>  0.0000  0.6812  0.0016  0.1624  0.0000  0.0000  0.0000  0.0000  0.0000 </r>
       </set>
       <set comment="band 4">
        <r>  0.0000  0.1633  0.0024  0.6766  0.0000  0.0000  0.0000  0.0000  0.0000 </r>
       </set>
       <set comment="band 5">
        <r>  0.2947  0.0002  0.0032  0.0013  0.0000  0.0000  0.0000  0.0000  0.0000 </r>
       </set>
       <set comment="band 6">
        <r>  0.0002  0.1241  0.1205  2.1836  0.0000  0.0000  0.0000  0.0000  0.0000 </r>
       </set>
       <set comment="band 7">
        <r>  0.0001  0.1632  0.2539  0.0040  0.0000  0.0000  0.0000  0.0000  0.0000 </r>
       </set>
       <set comment="band 8">
        <r>  0.0845  0.1853  0.0075  0.2174  0.0000  0.0000  0.0000  0.0000  0.0000 </r>
       </set>
      </set>
     </set>
    </set>
   </array>
  </projected>
 </calculation>
 <structure name="finalpos" >
  <crystal>
   <varray name="basis" >
    <v>       1.43536055       0.00000000       0.00000000 </v>
    <v>       0.00000000       1.43536055       0.00000000 </v>
    <v>       0.00000000       0.00000000       1.43536055 </v>
   </varray>
   <i name="volume">      2.95721580 </i>
   <varray name="rec_basis" >
    <v>       0.69668907       0.00000000       0.00000000 </v>
    <v>       0.00000000       0.69668907       0.00000000 </v>
    <v>       0.00000000       0.00000000       0.69668907 </v>
   </varray>
  </crystal>
  <varray name="positions" >
   <v>       0.00000000       0.00000000       0.00000000 </v>
  </varray>
 </structure>
</modeling>
