   1   1   1   0
  0.2957216E+01  0.1435361E-09  0.1435361E-09  0.1435361E-09  0.5000000E-15
  1.000000000000000E-004
  CAR 
 jump2                                   
    241.21346417    -25.73736701 3001      2.24161634      1.00000000
    -25.737  0.0000E+00  0.0000E+00
    -25.648  0.0000E+00  0.0000E+00
    -25.559  0.0000E+00  0.0000E+00
    -25.470  0.0000E+00  0.0000E+00
    -25.381  0.0000E+00  0.0000E+00
    -25.292  0.0000E+00  0.0000E+00
    -25.203  0.0000E+00  0.0000E+00
    -25.114  0.0000E+00  0.0000E+00
    -25.025  0.0000E+00  0.0000E+00
    -24.937  0.0000E+00  0.0000E+00
    -24.848  0.0000E+00  0.0000E+00
    -24.759  0.0000E+00  0.0000E+00
    -24.670  0.0000E+00  0.0000E+00
    -24.581  0.0000E+00  0.0000E+00
    -24.492  0.0000E+00  0.0000E+00
    -24.403  0.0000E+00  0.0000E+00
    -24.314  0.0000E+00  0.0000E+00
    -24.225  0.0000E+00  0.0000E+00
    -24.136  0.0000E+00  0.0000E+00
    -24.047  0.0000E+00  0.0000E+00
    -23.958  0.0000E+00  0.0000E+00
    -23.869  0.0000E+00  0.0000E+00
    -23.780  0.0000E+00  0.0000E+00
    -23.691  0.0000E+00  0.0000E+00
    -23.602  0.0000E+00  0.0000E+00
    -23.513  0.0000E+00  0.0000E+00
    -23.424  0.0000E+00  0.0000E+00
    -23.335  0.0000E+00  0.0000E+00
    -23.246  0.0000E+00  0.0000E+00
    -23.157  0.0000E+00  0.0000E+00
    -23.068  0.0000E+00  0.0000E+00
    -22.979  0.0000E+00  0.0000E+00
    -22.890  0.0000E+00  0.0000E+00
    -22.801  0.0000E+00  0.0000E+00
    -22.712  0.0000E+00  0.0000E+00
    -22.623  0.0000E+00  0.0000E+00
    -22.534  0.0000E+00  0.0000E+00
    -22.445  0.0000E+00  0.0000E+00
    -22.356  0.0000E+00  0.0000E+00
    -22.267  0.0000E+00  0.0000E+00
    -22.178  0.0000E+00  0.0000E+00
    -22.089  0.0000E+00  0.0000E+00
    -22.000  0.0000E+00  0.0000E+00
    -21.911  0.0000E+00  0.0000E+00
    -21.822  0.0000E+00  0.0000E+00
    -21.733  0.0000E+00  0.0000E+00
    -21.644  0.0000E+00  0.0000E+00
    -21.555  0.0000E+00  0.0000E+00
    -21.466  0.0000E+00  0.0000E+00
    -21.377  0.0000E+00  0.0000E+00
    -21.288  0.0000E+00  0.0000E+00
    -21.199  0.0000E+00  0.0000E+00
    -21.110  0.0000E+00  0.0000E+00
    -21.021  0.0000E+00  0.0000E+00
    -20.932  0.0000E+00  0.0000E+00
    -20.843  0.0000E+00  0.0000E+00
    -20.754  0.0000E+00  0.0000E+00
    -20.665  0.0000E+00  0.0000E+00
    -20.576  0.0000E+00  0.0000E+00
    -20.487  0.0000E+00  0.0000E+00
    -20.398  0.0000E+00  0.0000E+00
    -20.309  0.0000E+00  0.0000E+00
    -20.220  0.0000E+00  0.0000E+00
    -20.131  0.0000E+00  0.0000E+00
    -20.042  0.0000E+00  0.0000E+00
    -19.953  0.0000E+00  0.0000E+00
    -19.864  0.0000E+00  0.0000E+00
    -19.775  0.0000E+00  0.0000E+00
    -19.686  0.0000E+00  0.0000E+00
    -19.597  0.0000E+00  0.0000E+00
    -19.509  0.0000E+00  0.0000E+00
    -19.420  0.0000E+00  0.0000E+00
    -19.331  0.0000E+00  0.0000E+00
    -19.242  0.0000E+00  0.0000E+00
    -19.153  0.0000E+00  0.0000E+00
    -19.064  0.0000E+00  0.0000E+00
    -18.975  0.0000E+00  0.0000E+00
    -18.886  0.0000E+00  0.0000E+00
    -18.797  0.0000E+00  0.0000E+00
    -18.708  0.0000E+00  0.0000E+00
    -18.619  0.0000E+00  0.0000E+00
    -18.530  0.0000E+00  0.0000E+00
    -18.441  0.0000E+00  0.0000E+00
    -18.352  0.0000E+00  0.0000E+00
    -18.263  0.0000E+00  0.0000E+00
    -18.174  0.0000E+00  0.0000E+00
    -18.085  0.0000E+00  0.0000E+00
    -17.996  0.0000E+00  0.0000E+00
    -17.907  0.0000E+00  0.0000E+00
    -17.818  0.0000E+00  0.0000E+00
    -17.729  0.0000E+00  0.0000E+00
    -17.640  0.0000E+00  0.0000E+00
    -17.551  0.0000E+00  0.0000E+00
    -17.462  0.0000E+00  0.0000E+00
    -17.373  0.0000E+00  0.0000E+00
    -17.284  0.0000E+00  0.0000E+00
    -17.195  0.0000E+00  0.0000E+00
    -17.106  0.0000E+00  0.0000E+00
    -17.017  0.0000E+00  0.0000E+00
    -16.928  0.0000E+00  0.0000E+00
    -16.839  0.0000E+00  0.0000E+00
    -16.750  0.0000E+00  0.0000E+00
    -16.661  0.0000E+00  0.0000E+00
    -16.572  0.0000E+00  0.0000E+00
    -16.483  0.0000E+00  0.0000E+00
    -16.394  0.0000E+00  0.0000E+00
    -16.305  0.0000E+00  0.0000E+00
    -16.216  0.0000E+00  0.0000E+00
    -16.127  0.0000E+00  0.0000E+00
    -16.038  0.0000E+00  0.0000E+00
    -15.949  0.0000E+00  0.0000E+00
    -15.860  0.0000E+00  0.0000E+00
    -15.771  0.0000E+00  0.0000E+00
    -15.682  0.0000E+00  0.0000E+00
    -15.593  0.0000E+00  0.0000E+00
    -15.504  0.0000E+00  0.0000E+00
    -15.415  0.0000E+00  0.0000E+00
    -15.326  0.0000E+00  0.0000E+00
    -15.237  0.0000E+00  0.0000E+00
    -15.148  0.0000E+00  0.0000E+00
    -15.059  0.0000E+00  0.0000E+00
    -14.970  0.0000E+00  0.0000E+00
    -14.881  0.0000E+00  0.0000E+00
    -14.792  0.0000E+00  0.0000E+00
    -14.703  0.0000E+00  0.0000E+00
    -14.614  0.0000E+00  0.0000E+00
    -14.525  0.0000E+00  0.0000E+00
    -14.436  0.0000E+00  0.0000E+00
    -14.347  0.0000E+00  0.0000E+00
    -14.258  0.0000E+00  0.0000E+00
    -14.169  0.0000E+00  0.0000E+00
    -14.081  0.0000E+00  0.0000E+00
    -13.992  0.9399E-14  0.8364E-15
    -13.903  0.1708E-09  0.1520E-10
    -13.814  0.2819E-06  0.2510E-07
    -13.725  0.4460E-04  0.3994E-05
    -13.636  0.7540E-03  0.7108E-04
    -13.547  0.1857E-02  0.2363E-03
    -13.458  0.5105E-02  0.6906E-03
    -13.369  0.9989E-02  0.1579E-02
    -13.280  0.1213E-01  0.2659E-02
    -13.191  0.1910E-01  0.4359E-02
    -13.102  0.1137E-01  0.5371E-02
    -13.013  0.1280E-01  0.6510E-02
    -12.924  0.8213E-02  0.7241E-02
    -12.835  0.1081E-01  0.8203E-02
    -12.746  0.2365E-01  0.1031E-01
    -12.657  0.3790E-01  0.1368E-01
    -12.568  0.3019E-01  0.1637E-01
    -12.479  0.3592E-01  0.1956E-01
    -12.390  0.7541E-02  0.2023E-01
    -12.301  0.1353E-02  0.2035E-01
    -12.212  0.1253E-01  0.2147E-01
    -12.123  0.2019E-01  0.2327E-01
    -12.034  0.3546E-01  0.2642E-01
    -11.945  0.4448E-01  0.3038E-01
    -11.856  0.3400E-01  0.3341E-01
    -11.767  0.3543E-01  0.3656E-01
    -11.678  0.3227E-01  0.3943E-01
    -11.589  0.3362E-01  0.4242E-01
    -11.500  0.1507E-01  0.4376E-01
    -11.411  0.1380E-01  0.4499E-01
    -11.322  0.3131E-01  0.4778E-01
    -11.233  0.3765E-01  0.5113E-01
    -11.144  0.6409E-01  0.5683E-01
    -11.055  0.5900E-01  0.6208E-01
    -10.966  0.7459E-02  0.6274E-01
    -10.877  0.1739E-02  0.6290E-01
    -10.788  0.8948E-02  0.6369E-01
    -10.699  0.1919E-01  0.6540E-01
    -10.610  0.7005E-01  0.7164E-01
    -10.521  0.5919E-01  0.7690E-01
    -10.432  0.5779E-01  0.8205E-01
    -10.343  0.3963E-01  0.8557E-01
    -10.254  0.3705E-01  0.8887E-01
    -10.165  0.3377E-01  0.9187E-01
    -10.076  0.3966E-01  0.9540E-01
     -9.987  0.3693E-01  0.9869E-01
     -9.898  0.7467E-01  0.1053E+00
     -9.809  0.4915E-01  0.1097E+00
     -9.720  0.3894E-01  0.1132E+00
     -9.631  0.2170E-01  0.1151E+00
     -9.542  0.1937E-02  0.1153E+00
     -9.453  0.9768E-02  0.1161E+00
     -9.364  0.3811E-01  0.1195E+00
     -9.275  0.3574E-01  0.1227E+00
     -9.186  0.5121E-01  0.1273E+00
     -9.097  0.6586E-01  0.1331E+00
     -9.008  0.1158E+00  0.1434E+00
     -8.919  0.6413E-01  0.1491E+00
     -8.830  0.4982E-01  0.1536E+00
     -8.741  0.1270E-01  0.1547E+00
     -8.653  0.3909E-02  0.1551E+00
     -8.564  0.5426E-01  0.1599E+00
     -8.475  0.1162E+00  0.1702E+00
     -8.386  0.8116E-01  0.1774E+00
     -8.297  0.6946E-01  0.1836E+00
     -8.208  0.1237E-01  0.1847E+00
     -8.119  0.1178E-02  0.1848E+00
     -8.030  0.1143E-01  0.1858E+00
     -7.941  0.2258E-01  0.1879E+00
     -7.852  0.5422E-01  0.1927E+00
     -7.763  0.7264E-01  0.1991E+00
     -7.674  0.6273E-01  0.2047E+00
     -7.585  0.7567E-01  0.2115E+00
     -7.496  0.7471E-01  0.2181E+00
     -7.407  0.6375E-01  0.2238E+00
     -7.318  0.4323E-01  0.2276E+00
     -7.229  0.5462E-01  0.2325E+00
     -7.140  0.4470E-01  0.2365E+00
     -7.051  0.4199E-01  0.2402E+00
     -6.962  0.1043E+00  0.2495E+00
     -6.873  0.5956E-01  0.2548E+00
     -6.784  0.6636E-02  0.2554E+00
     -6.695  0.2109E-01  0.2573E+00
     -6.606  0.4048E-01  0.2609E+00
     -6.517  0.6860E-01  0.2670E+00
     -6.428  0.1412E+00  0.2795E+00
     -6.339  0.8249E-01  0.2869E+00
     -6.250  0.8053E-01  0.2940E+00
     -6.161  0.4446E-01  0.2980E+00
     -6.072  0.4183E-01  0.3017E+00
     -5.983  0.4409E-01  0.3056E+00
     -5.894  0.3900E-01  0.3091E+00
     -5.805  0.6016E-01  0.3145E+00
     -5.716  0.1164E+00  0.3248E+00
     -5.627  0.9494E-01  0.3333E+00
     -5.538  0.5990E-01  0.3386E+00
     -5.449  0.7241E-02  0.3392E+00
     -5.360  0.3764E-03  0.3393E+00
     -5.271  0.7383E-02  0.3399E+00
     -5.182  0.3445E-01  0.3430E+00
     -5.093  0.8935E-01  0.3509E+00
     -5.004  0.9438E-01  0.3593E+00
     -4.915  0.8790E-01  0.3672E+00
     -4.826  0.1324E+00  0.3789E+00
     -4.737  0.6490E-01  0.3847E+00
     -4.648  0.4174E-01  0.3884E+00
     -4.559  0.5790E-01  0.3936E+00
     -4.470  0.8257E-01  0.4009E+00
     -4.381  0.1238E+00  0.4120E+00
     -4.292  0.1243E+00  0.4230E+00
     -4.203  0.9555E-01  0.4315E+00
     -4.114  0.4404E-01  0.4354E+00
     -4.025  0.4944E-02  0.4359E+00
     -3.936  0.3132E-01  0.4387E+00
     -3.847  0.9675E-01  0.4473E+00
     -3.758  0.7022E-01  0.4535E+00
     -3.669  0.6756E-01  0.4595E+00
     -3.580  0.6607E-01  0.4654E+00
     -3.491  0.6100E-01  0.4708E+00
     -3.402  0.7734E-01  0.4777E+00
     -3.313  0.4888E-01  0.4821E+00
     -3.225  0.1792E-01  0.4837E+00
     -3.136  0.8073E-02  0.4844E+00
     -3.047  0.7979E-01  0.4915E+00
     -2.958  0.1725E+00  0.5068E+00
     -2.869  0.1533E+00  0.5205E+00
     -2.780  0.7559E-01  0.5272E+00
     -2.691  0.4091E-01  0.5308E+00
     -2.602  0.3212E-01  0.5337E+00
     -2.513  0.4644E-01  0.5378E+00
     -2.424  0.7322E-01  0.5443E+00
     -2.335  0.1103E+00  0.5542E+00
     -2.246  0.1357E+00  0.5662E+00
     -2.157  0.1089E+00  0.5759E+00
     -2.068  0.1135E+00  0.5860E+00
     -1.979  0.1069E+00  0.5956E+00
     -1.890  0.4705E-01  0.5997E+00
     -1.801  0.6056E-01  0.6051E+00
     -1.712  0.9949E-01  0.6140E+00
     -1.623  0.3640E-01  0.6172E+00
     -1.534  0.3923E-01  0.6207E+00
     -1.445  0.1158E+00  0.6310E+00
     -1.356  0.6540E-01  0.6368E+00
     -1.267  0.4601E-01  0.6409E+00
     -1.178  0.6751E-01  0.6469E+00
     -1.089  0.9301E-01  0.6552E+00
     -1.000  0.6232E-01  0.6608E+00
     -0.911  0.9665E-01  0.6694E+00
     -0.822  0.1127E+00  0.6794E+00
     -0.733  0.9057E-01  0.6874E+00
     -0.644  0.1141E+00  0.6976E+00
     -0.555  0.1128E+00  0.7076E+00
     -0.466  0.9411E-01  0.7160E+00
     -0.377  0.5576E-01  0.7210E+00
     -0.288  0.1099E+00  0.7308E+00
     -0.199  0.1629E+00  0.7452E+00
     -0.110  0.9241E-01  0.7535E+00
     -0.021  0.5225E-01  0.7581E+00
      0.068  0.1121E+00  0.7681E+00
      0.157  0.9521E-01  0.7766E+00
      0.246  0.1248E+00  0.7877E+00
      0.335  0.1087E+00  0.7973E+00
      0.424  0.6594E-01  0.8032E+00
      0.513  0.4143E-01  0.8069E+00
      0.602  0.1234E+00  0.8179E+00
      0.691  0.1454E+00  0.8308E+00
      0.780  0.8111E-01  0.8380E+00
      0.869  0.6315E-01  0.8436E+00
      0.958  0.7922E-01  0.8507E+00
      1.047  0.1065E+00  0.8602E+00
      1.136  0.1603E+00  0.8744E+00
      1.225  0.8064E-01  0.8816E+00
      1.314  0.8322E-01  0.8890E+00
      1.403  0.1154E+00  0.8993E+00
      1.492  0.1334E+00  0.9112E+00
      1.581  0.2234E+00  0.9310E+00
      1.670  0.1969E+00  0.9485E+00
      1.759  0.4966E-01  0.9530E+00
      1.848  0.8639E-01  0.9607E+00
      1.937  0.6999E-01  0.9669E+00
      2.026  0.6479E-01  0.9726E+00
      2.115  0.1390E+00  0.9850E+00
      2.203  0.1228E+00  0.9959E+00
      2.292  0.8960E-01  0.1004E+01
      2.381  0.4639E-01  0.1008E+01
      2.470  0.9585E-01  0.1017E+01
      2.559  0.8563E-01  0.1024E+01
      2.648  0.8206E-01  0.1031E+01
      2.737  0.1006E+00  0.1040E+01
      2.826  0.7330E-01  0.1047E+01
      2.915  0.5804E-01  0.1052E+01
      3.004  0.8411E-01  0.1060E+01
      3.093  0.7312E-01  0.1066E+01
      3.182  0.9631E-01  0.1075E+01
      3.271  0.1048E+00  0.1084E+01
      3.360  0.1265E+00  0.1095E+01
      3.449  0.1289E+00  0.1107E+01
      3.538  0.9241E-01  0.1115E+01
      3.627  0.1535E+00  0.1129E+01
      3.716  0.1925E+00  0.1146E+01
      3.805  0.1591E+00  0.1160E+01
      3.894  0.1087E+00  0.1170E+01
      3.983  0.6959E-01  0.1176E+01
      4.072  0.3514E-01  0.1179E+01
      4.161  0.8747E-01  0.1187E+01
      4.250  0.9573E-01  0.1195E+01
      4.339  0.5399E-01  0.1200E+01
      4.428  0.5870E-02  0.1201E+01
      4.517  0.1539E-01  0.1202E+01
      4.606  0.7220E-01  0.1208E+01
      4.695  0.1079E+00  0.1218E+01
      4.784  0.1571E+00  0.1232E+01
      4.873  0.8407E-01  0.1239E+01
      4.962  0.2229E-01  0.1241E+01
      5.051  0.4848E-01  0.1246E+01
      5.140  0.1034E+00  0.1255E+01
      5.229  0.1177E+00  0.1265E+01
      5.318  0.1282E+00  0.1277E+01
      5.407  0.1041E+00  0.1286E+01
      5.496  0.1357E+00  0.1298E+01
      5.585  0.1092E+00  0.1308E+01
      5.674  0.5752E-01  0.1313E+01
      5.763  0.5502E-01  0.1318E+01
      5.852  0.6281E-01  0.1323E+01
      5.941  0.1428E+00  0.1336E+01
      6.030  0.1908E+00  0.1353E+01
      6.119  0.9300E-01  0.1361E+01
      6.208  0.6837E-01  0.1367E+01
      6.297  0.8415E-01  0.1375E+01
      6.386  0.4055E-01  0.1379E+01
      6.475  0.2057E-01  0.1380E+01
      6.564  0.3826E-01  0.1384E+01
      6.653  0.1863E-01  0.1385E+01
      6.742  0.2615E-01  0.1388E+01
      6.831  0.1219E+00  0.1399E+01
      6.920  0.1143E+00  0.1409E+01
      7.009  0.7461E-01  0.1415E+01
      7.098  0.5935E-01  0.1421E+01
      7.187  0.2233E-01  0.1423E+01
      7.276  0.7768E-01  0.1430E+01
      7.365  0.1089E+00  0.1439E+01
      7.454  0.1326E+00  0.1451E+01
      7.543  0.1308E+00  0.1463E+01
      7.631  0.7382E-01  0.1469E+01
      7.720  0.6444E-01  0.1475E+01
      7.809  0.4771E-01  0.1479E+01
      7.898  0.6578E-01  0.1485E+01
      7.987  0.1778E+00  0.1501E+01
      8.076  0.1945E+00  0.1518E+01
      8.165  0.7008E-01  0.1525E+01
      8.254  0.2533E-01  0.1527E+01
      8.343  0.2008E-01  0.1529E+01
      8.432  0.1980E-01  0.1530E+01
      8.521  0.3802E-01  0.1534E+01
      8.610  0.1993E-01  0.1535E+01
      8.699  0.1399E-01  0.1537E+01
      8.788  0.4073E-01  0.1540E+01
      8.877  0.8572E-01  0.1548E+01
      8.966  0.1069E+00  0.1557E+01
      9.055  0.1393E+00  0.1570E+01
      9.144  0.5995E-01  0.1575E+01
      9.233  0.4117E-01  0.1579E+01
      9.322  0.2108E-01  0.1581E+01
      9.411  0.7425E-01  0.1587E+01
      9.500  0.1956E+00  0.1605E+01
      9.589  0.1348E+00  0.1617E+01
      9.678  0.9220E-01  0.1625E+01
      9.767  0.4595E-01  0.1629E+01
      9.856  0.5635E-01  0.1634E+01
      9.945  0.4028E-01  0.1638E+01
     10.034  0.9823E-01  0.1646E+01
     10.123  0.1419E+00  0.1659E+01
     10.212  0.9358E-01  0.1667E+01
     10.301  0.3916E-01  0.1671E+01
     10.390  0.6720E-01  0.1677E+01
     10.479  0.7177E-01  0.1683E+01
     10.568  0.5660E-01  0.1688E+01
     10.657  0.1094E-01  0.1689E+01
     10.746  0.1136E-02  0.1689E+01
     10.835  0.2470E-01  0.1692E+01
     10.924  0.1264E+00  0.1703E+01
     11.013  0.1550E+00  0.1717E+01
     11.102  0.1126E+00  0.1727E+01
     11.191  0.1238E+00  0.1738E+01
     11.280  0.1986E+00  0.1755E+01
     11.369  0.8619E-01  0.1763E+01
     11.458  0.1069E+00  0.1772E+01
     11.547  0.1014E+00  0.1781E+01
     11.636  0.8471E-01  0.1789E+01
     11.725  0.6714E-01  0.1795E+01
     11.814  0.1481E+00  0.1808E+01
     11.903  0.1010E+00  0.1817E+01
     11.992  0.6428E-01  0.1823E+01
     12.081  0.9860E-01  0.1832E+01
     12.170  0.7922E-01  0.1839E+01
     12.259  0.6516E-01  0.1845E+01
     12.348  0.1052E+00  0.1854E+01
     12.437  0.8419E-01  0.1861E+01
     12.526  0.8213E-01  0.1869E+01
     12.615  0.6613E-01  0.1875E+01
     12.704  0.1329E+00  0.1886E+01
     12.793  0.1285E+00  0.1898E+01
     12.882  0.4124E-01  0.1901E+01
     12.971  0.5061E-01  0.1906E+01
     13.059  0.6183E-01  0.1911E+01
     13.148  0.1161E+00  0.1922E+01
     13.237  0.1838E+00  0.1938E+01
     13.326  0.1040E+00  0.1947E+01
     13.415  0.5152E-01  0.1952E+01
     13.504  0.1084E+00  0.1962E+01
     13.593  0.7809E-01  0.1969E+01
     13.682  0.1743E-01  0.1970E+01
     13.771  0.4296E-01  0.1974E+01
     13.860  0.7539E-01  0.1981E+01
     13.949  0.1377E+00  0.1993E+01
     14.038  0.1333E+00  0.2005E+01
     14.127  0.1084E+00  0.2014E+01
     14.216  0.7748E-01  0.2021E+01
     14.305  0.5725E-01  0.2026E+01
     14.394  0.9112E-01  0.2035E+01
     14.483  0.1041E+00  0.2044E+01
     14.572  0.1052E+00  0.2053E+01
     14.661  0.7819E-01  0.2060E+01
     14.750  0.5202E-01  0.2065E+01
     14.839  0.2528E-01  0.2067E+01
     14.928  0.4031E-01  0.2071E+01
     15.017  0.5591E-01  0.2076E+01
     15.106  0.1346E+00  0.2088E+01
     15.195  0.1523E+00  0.2101E+01
     15.284  0.1554E+00  0.2115E+01
     15.373  0.1410E+00  0.2127E+01
     15.462  0.1004E+00  0.2136E+01
     15.551  0.1069E+00  0.2146E+01
     15.640  0.1280E+00  0.2157E+01
     15.729  0.4934E-01  0.2162E+01
     15.818  0.4250E-01  0.2165E+01
     15.907  0.7974E-01  0.2173E+01
     15.996  0.1903E+00  0.2190E+01
     16.085  0.1570E+00  0.2203E+01
     16.174  0.9758E-01  0.2212E+01
     16.263  0.1996E-01  0.2214E+01
     16.352  0.2913E-02  0.2214E+01
     16.441  0.3664E-01  0.2217E+01
     16.530  0.7865E-01  0.2224E+01
     16.619  0.5973E-01  0.2230E+01
     16.708  0.7760E-01  0.2237E+01
     16.797  0.4728E-01  0.2241E+01
     16.886  0.8714E-01  0.2249E+01
     16.975  0.1559E+00  0.2263E+01
     17.064  0.1762E+00  0.2278E+01
     17.153  0.9493E-01  0.2287E+01
     17.242  0.9179E-01  0.2295E+01
     17.331  0.7650E-01  0.2302E+01
     17.420  0.7346E-01  0.2308E+01
     17.509  0.9477E-01  0.2317E+01
     17.598  0.1178E+00  0.2327E+01
     17.687  0.1091E+00  0.2337E+01
     17.776  0.9723E-01  0.2345E+01
     17.865  0.4157E-01  0.2349E+01
     17.954  0.1915E-01  0.2351E+01
     18.043  0.7106E-01  0.2357E+01
     18.132  0.5209E-01  0.2362E+01
     18.221  0.6796E-01  0.2368E+01
     18.310  0.9904E-01  0.2377E+01
     18.399  0.4662E-01  0.2381E+01
     18.487  0.1038E+00  0.2390E+01
     18.576  0.1742E+00  0.2406E+01
     18.665  0.1753E+00  0.2421E+01
     18.754  0.1326E+00  0.2433E+01
     18.843  0.9597E-01  0.2441E+01
     18.932  0.1556E+00  0.2455E+01
     19.021  0.1374E+00  0.2468E+01
     19.110  0.7681E-01  0.2474E+01
     19.199  0.1031E+00  0.2484E+01
     19.288  0.1168E+00  0.2494E+01
     19.377  0.7273E-01  0.2500E+01
     19.466  0.2472E-01  0.2503E+01
     19.555  0.3452E-01  0.2506E+01
     19.644  0.7315E-01  0.2512E+01
     19.733  0.1088E+00  0.2522E+01
     19.822  0.1688E+00  0.2537E+01
     19.911  0.1354E+00  0.2549E+01
     20.000  0.1015E+00  0.2558E+01
     20.089  0.1244E+00  0.2569E+01
     20.178  0.1619E+00  0.2583E+01
     20.267  0.1264E+00  0.2595E+01
     20.356  0.9927E-01  0.2604E+01
     20.445  0.1098E+00  0.2613E+01
     20.534  0.1518E+00  0.2627E+01
     20.623  0.1595E+00  0.2641E+01
     20.712  0.4332E-01  0.2645E+01
     20.801  0.1814E-02  0.2645E+01
     20.890  0.3063E-02  0.2645E+01
     20.979  0.2958E-01  0.2648E+01
     21.068  0.1149E+00  0.2658E+01
     21.157  0.2364E+00  0.2679E+01
     21.246  0.2491E+00  0.2701E+01
     21.335  0.1251E+00  0.2712E+01
     21.424  0.1097E+00  0.2722E+01
     21.513  0.3988E-01  0.2726E+01
     21.602  0.7473E-02  0.2726E+01
     21.691  0.6765E-01  0.2732E+01
     21.780  0.1804E+00  0.2749E+01
     21.869  0.1073E+00  0.2758E+01
     21.958  0.5964E-01  0.2763E+01
     22.047  0.9565E-01  0.2772E+01
     22.136  0.5720E-01  0.2777E+01
     22.225  0.5096E-01  0.2781E+01
     22.314  0.7632E-01  0.2788E+01
     22.403  0.7800E-01  0.2795E+01
     22.492  0.1723E+00  0.2811E+01
     22.581  0.2008E+00  0.2828E+01
     22.670  0.2374E+00  0.2850E+01
     22.759  0.1656E+00  0.2864E+01
     22.848  0.1400E+00  0.2877E+01
     22.937  0.8740E-01  0.2885E+01
     23.026  0.4654E-01  0.2889E+01
     23.115  0.9948E-01  0.2898E+01
     23.204  0.2101E+00  0.2916E+01
     23.293  0.1840E+00  0.2933E+01
     23.382  0.4207E-01  0.2936E+01
     23.471  0.2794E-02  0.2937E+01
     23.560  0.1703E-01  0.2938E+01
     23.649  0.9293E-01  0.2946E+01
     23.738  0.1907E+00  0.2963E+01
     23.827  0.1939E+00  0.2981E+01
     23.915  0.1460E+00  0.2994E+01
     24.004  0.1679E+00  0.3009E+01
     24.093  0.2578E+00  0.3031E+01
     24.182  0.1530E+00  0.3045E+01
     24.271  0.1009E+00  0.3054E+01
     24.360  0.1684E+00  0.3069E+01
     24.449  0.1196E+00  0.3080E+01
     24.538  0.5989E-01  0.3085E+01
     24.627  0.1069E+00  0.3095E+01
     24.716  0.1208E+00  0.3105E+01
     24.805  0.1652E+00  0.3120E+01
     24.894  0.2170E+00  0.3139E+01
     24.983  0.1337E+00  0.3151E+01
     25.072  0.8291E-01  0.3159E+01
     25.161  0.1451E+00  0.3171E+01
     25.250  0.1942E+00  0.3189E+01
     25.339  0.1212E+00  0.3200E+01
     25.428  0.2267E-01  0.3202E+01
     25.517  0.8044E-01  0.3209E+01
     25.606  0.1463E+00  0.3222E+01
     25.695  0.1650E+00  0.3236E+01
     25.784  0.1699E+00  0.3252E+01
     25.873  0.4860E-01  0.3256E+01
     25.962  0.9144E-01  0.3264E+01
     26.051  0.9344E-01  0.3272E+01
     26.140  0.2813E-01  0.3275E+01
     26.229  0.7131E-01  0.3281E+01
     26.318  0.8312E-01  0.3289E+01
     26.407  0.6833E-01  0.3295E+01
     26.496  0.1466E+00  0.3308E+01
     26.585  0.1487E+00  0.3321E+01
     26.674  0.1136E+00  0.3331E+01
     26.763  0.1609E+00  0.3345E+01
     26.852  0.1962E+00  0.3363E+01
     26.941  0.1546E+00  0.3377E+01
     27.030  0.1670E+00  0.3391E+01
     27.119  0.1585E+00  0.3406E+01
     27.208  0.1157E+00  0.3416E+01
     27.297  0.6773E-01  0.3422E+01
     27.386  0.7905E-01  0.3429E+01
     27.475  0.1071E+00  0.3438E+01
     27.564  0.1559E+00  0.3452E+01
     27.653  0.7305E-01  0.3459E+01
     27.742  0.7322E-01  0.3465E+01
     27.831  0.7211E-01  0.3472E+01
     27.920  0.7345E-01  0.3478E+01
     28.009  0.8061E-01  0.3485E+01
     28.098  0.9033E-01  0.3493E+01
     28.187  0.1340E+00  0.3505E+01
     28.276  0.2284E+00  0.3526E+01
     28.365  0.2131E+00  0.3545E+01
     28.454  0.1449E+00  0.3558E+01
     28.543  0.1951E+00  0.3575E+01
     28.632  0.1858E+00  0.3591E+01
     28.721  0.1184E+00  0.3602E+01
     28.810  0.1634E+00  0.3617E+01
     28.899  0.1408E+00  0.3629E+01
     28.988  0.7989E-01  0.3636E+01
     29.077  0.3337E-01  0.3639E+01
     29.166  0.3982E-01  0.3643E+01
     29.255  0.7229E-01  0.3649E+01
     29.343  0.1830E+00  0.3665E+01
     29.432  0.2379E+00  0.3687E+01
     29.521  0.1341E+00  0.3698E+01
     29.610  0.1329E+00  0.3710E+01
     29.699  0.7785E-01  0.3717E+01
     29.788  0.8734E-01  0.3725E+01
     29.877  0.8455E-01  0.3733E+01
     29.966  0.7231E-01  0.3739E+01
     30.055  0.1591E+00  0.3753E+01
     30.144  0.1308E+00  0.3765E+01
     30.233  0.1516E+00  0.3778E+01
     30.322  0.1986E+00  0.3796E+01
     30.411  0.2653E+00  0.3820E+01
     30.500  0.3416E+00  0.3850E+01
     30.589  0.1496E+00  0.3863E+01
     30.678  0.1294E+00  0.3875E+01
     30.767  0.1594E+00  0.3889E+01
     30.856  0.1519E+00  0.3902E+01
     30.945  0.2002E+00  0.3920E+01
     31.034  0.1630E+00  0.3935E+01
     31.123  0.3417E-01  0.3938E+01
     31.212  0.2199E-02  0.3938E+01
     31.301  0.2129E-03  0.3938E+01
     31.390  0.1092E-01  0.3939E+01
     31.479  0.1031E+00  0.3948E+01
     31.568  0.1991E+00  0.3966E+01
     31.657  0.1883E+00  0.3983E+01
     31.746  0.8585E-01  0.3990E+01
     31.835  0.7342E-01  0.3997E+01
     31.924  0.8878E-01  0.4005E+01
     32.013  0.6138E-01  0.4010E+01
     32.102  0.1010E+00  0.4019E+01
     32.191  0.7986E-01  0.4026E+01
     32.280  0.6210E-01  0.4032E+01
     32.369  0.8556E-01  0.4039E+01
     32.458  0.1282E+00  0.4051E+01
     32.547  0.1349E+00  0.4063E+01
     32.636  0.2366E+00  0.4084E+01
     32.725  0.2612E+00  0.4107E+01
     32.814  0.1192E+00  0.4118E+01
     32.903  0.4235E-01  0.4121E+01
     32.992  0.7334E-01  0.4128E+01
     33.081  0.2076E+00  0.4146E+01
     33.170  0.2622E+00  0.4170E+01
     33.259  0.1206E+00  0.4181E+01
     33.348  0.2282E-01  0.4183E+01
     33.437  0.2878E-01  0.4185E+01
     33.526  0.1010E+00  0.4194E+01
     33.615  0.1493E+00  0.4207E+01
     33.704  0.6173E-01  0.4213E+01
     33.793  0.3137E-01  0.4216E+01
     33.882  0.9281E-01  0.4224E+01
     33.971  0.2140E+00  0.4243E+01
     34.060  0.3438E+00  0.4274E+01
     34.149  0.1831E+00  0.4290E+01
     34.238  0.6695E-01  0.4296E+01
     34.327  0.5423E-01  0.4301E+01
     34.416  0.8700E-01  0.4308E+01
     34.505  0.1826E+00  0.4325E+01
     34.594  0.2159E+00  0.4344E+01
     34.683  0.1481E+00  0.4357E+01
     34.771  0.1448E+00  0.4370E+01
     34.860  0.1687E+00  0.4385E+01
     34.949  0.2180E+00  0.4404E+01
     35.038  0.1651E+00  0.4419E+01
     35.127  0.7932E-01  0.4426E+01
     35.216  0.2166E+00  0.4445E+01
     35.305  0.2869E+00  0.4471E+01
     35.394  0.2086E+00  0.4489E+01
     35.483  0.1351E+00  0.4501E+01
     35.572  0.1014E+00  0.4511E+01
     35.661  0.8102E-01  0.4518E+01
     35.750  0.3179E-01  0.4521E+01
     35.839  0.6977E-01  0.4527E+01
     35.928  0.1026E+00  0.4536E+01
     36.017  0.1010E+00  0.4545E+01
     36.106  0.1908E+00  0.4562E+01
     36.195  0.1564E+00  0.4576E+01
     36.284  0.4056E-01  0.4579E+01
     36.373  0.1162E+00  0.4590E+01
     36.462  0.1787E+00  0.4606E+01
     36.551  0.9194E-01  0.4614E+01
     36.640  0.1104E+00  0.4624E+01
     36.729  0.1858E+00  0.4640E+01
     36.818  0.9323E-01  0.4648E+01
     36.907  0.1534E+00  0.4662E+01
     36.996  0.1643E+00  0.4677E+01
     37.085  0.1501E+00  0.4690E+01
     37.174  0.1007E+00  0.4699E+01
     37.263  0.1098E+00  0.4709E+01
     37.352  0.1099E+00  0.4719E+01
     37.441  0.9945E-01  0.4727E+01
     37.530  0.1022E+00  0.4737E+01
     37.619  0.2033E+00  0.4755E+01
     37.708  0.9232E-01  0.4763E+01
     37.797  0.5291E-01  0.4768E+01
     37.886  0.1645E+00  0.4782E+01
     37.975  0.2312E+00  0.4803E+01
     38.064  0.2101E+00  0.4821E+01
     38.153  0.1108E+00  0.4831E+01
     38.242  0.1621E+00  0.4846E+01
     38.331  0.1891E+00  0.4863E+01
     38.420  0.2274E+00  0.4883E+01
     38.509  0.2882E+00  0.4908E+01
     38.598  0.3091E+00  0.4936E+01
     38.687  0.1632E+00  0.4950E+01
     38.776  0.7947E-01  0.4958E+01
     38.865  0.8011E-01  0.4965E+01
     38.954  0.1309E+00  0.4976E+01
     39.043  0.1953E+00  0.4994E+01
     39.132  0.1724E+00  0.5009E+01
     39.221  0.2062E+00  0.5027E+01
     39.310  0.1727E+00  0.5043E+01
     39.399  0.1904E+00  0.5060E+01
     39.488  0.1953E+00  0.5077E+01
     39.577  0.1404E+00  0.5090E+01
     39.666  0.2236E+00  0.5109E+01
     39.755  0.2498E+00  0.5132E+01
     39.844  0.9364E-01  0.5140E+01
     39.933  0.7072E-01  0.5146E+01
     40.022  0.3764E-01  0.5150E+01
     40.111  0.2244E-01  0.5152E+01
     40.199  0.7766E-01  0.5159E+01
     40.288  0.6539E-01  0.5164E+01
     40.377  0.8913E-01  0.5172E+01
     40.466  0.1691E+00  0.5187E+01
     40.555  0.1649E+00  0.5202E+01
     40.644  0.2657E+00  0.5226E+01
     40.733  0.3479E+00  0.5257E+01
     40.822  0.2039E+00  0.5275E+01
     40.911  0.1707E+00  0.5290E+01
     41.000  0.1075E+00  0.5300E+01
     41.089  0.7149E-01  0.5306E+01
     41.178  0.1055E+00  0.5315E+01
     41.267  0.5251E-01  0.5320E+01
     41.356  0.7751E-02  0.5321E+01
     41.445  0.1602E-01  0.5322E+01
     41.534  0.3968E-01  0.5326E+01
     41.623  0.1116E+00  0.5336E+01
     41.712  0.1582E+00  0.5350E+01
     41.801  0.2677E+00  0.5373E+01
     41.890  0.2473E+00  0.5395E+01
     41.979  0.1162E+00  0.5406E+01
     42.068  0.1269E+00  0.5417E+01
     42.157  0.1486E+00  0.5430E+01
     42.246  0.1674E+00  0.5445E+01
     42.335  0.1504E+00  0.5459E+01
     42.424  0.1304E+00  0.5470E+01
     42.513  0.1598E+00  0.5484E+01
     42.602  0.1300E+00  0.5496E+01
     42.691  0.9972E-01  0.5505E+01
     42.780  0.1083E+00  0.5514E+01
     42.869  0.6339E-01  0.5520E+01
     42.958  0.1228E+00  0.5531E+01
     43.047  0.9887E-01  0.5540E+01
     43.136  0.1647E+00  0.5555E+01
     43.225  0.2119E+00  0.5573E+01
     43.314  0.1696E+00  0.5588E+01
     43.403  0.1872E+00  0.5605E+01
     43.492  0.1594E+00  0.5619E+01
     43.581  0.8325E-01  0.5627E+01
     43.670  0.1289E+00  0.5638E+01
     43.759  0.2926E+00  0.5664E+01
     43.848  0.2596E+00  0.5687E+01
     43.937  0.2139E+00  0.5706E+01
     44.026  0.2378E+00  0.5728E+01
     44.115  0.1684E+00  0.5742E+01
     44.204  0.2001E+00  0.5760E+01
     44.293  0.2091E+00  0.5779E+01
     44.382  0.2161E+00  0.5798E+01
     44.471  0.1460E+00  0.5811E+01
     44.560  0.9201E-01  0.5819E+01
     44.649  0.8782E-01  0.5827E+01
     44.738  0.7174E-01  0.5834E+01
     44.827  0.9396E-01  0.5842E+01
     44.916  0.1479E+00  0.5855E+01
     45.005  0.1548E+00  0.5869E+01
     45.094  0.2134E+00  0.5888E+01
     45.183  0.6922E-01  0.5894E+01
     45.272  0.5550E-02  0.5894E+01
     45.361  0.2435E-01  0.5897E+01
     45.450  0.1010E+00  0.5906E+01
     45.539  0.1571E+00  0.5920E+01
     45.627  0.1020E+00  0.5929E+01
     45.716  0.1709E+00  0.5944E+01
     45.805  0.2030E+00  0.5962E+01
     45.894  0.1208E+00  0.5973E+01
     45.983  0.1736E+00  0.5988E+01
     46.072  0.9812E-01  0.5997E+01
     46.161  0.9535E-01  0.6005E+01
     46.250  0.1570E+00  0.6019E+01
     46.339  0.1838E+00  0.6036E+01
     46.428  0.1514E+00  0.6049E+01
     46.517  0.1903E+00  0.6066E+01
     46.606  0.1636E+00  0.6081E+01
     46.695  0.8498E-01  0.6088E+01
     46.784  0.1177E+00  0.6099E+01
     46.873  0.1181E+00  0.6109E+01
     46.962  0.8623E-01  0.6117E+01
     47.051  0.1048E+00  0.6126E+01
     47.140  0.6462E-01  0.6132E+01
     47.229  0.1396E+00  0.6144E+01
     47.318  0.1958E+00  0.6162E+01
     47.407  0.1721E+00  0.6177E+01
     47.496  0.7015E-01  0.6183E+01
     47.585  0.2485E-01  0.6186E+01
     47.674  0.5115E-01  0.6190E+01