<?xml version="1.0" encoding="ISO-8859-1"?>
<modeling>
 <generator>
  <i name="program" type="string">vasp </i>
  <i name="version" type="string">5.2.12  </i>
  <i name="subversion" type="string">11Nov11 complex                                                      parallel </i>
  <i name="platform" type="string">LinuxIFC </i>
  <i name="date" type="string">2018 01 16 </i>
  <i name="time" type="string">21:15:54 </i>
 </generator>
 <incar>
  <i type="string" name="SYSTEM"> jump2</i>
  <i type="int" name="ISTART">     1</i>
  <i type="string" name="PREC">normal</i>
  <i type="string" name="ALGO"> veryfast</i>
  <i type="logical" name="ADDGRID"> T  </i>
  <i name="AMIN">      0.01000000</i>
  <i type="int" name="ICHARG">    11</i>
  <i type="int" name="NELM">   100</i>
  <i type="int" name="IBRION">    -1</i>
  <i name="EDIFF">      0.00010000</i>
  <i name="EDIFFG">     -0.01000000</i>
  <i type="int" name="NSW">     0</i>
  <i type="int" name="ISIF">     2</i>
  <i name="ENCUT">    325.00000000</i>
  <i type="int" name="NBANDS">     8</i>
  <i type="int" name="NEDOS">  3001</i>
  <i type="string" name="LREAL"> Auto</i>
  <i type="logical" name="LPLANE"> T  </i>
  <i type="int" name="ISMEAR">     0</i>
  <i name="SIGMA">      0.08000000</i>
  <i name="KSPACING">      0.23000000</i>
  <i type="logical" name="LWAVE"> T  </i>
  <i type="logical" name="LCHARG"> F  </i>
  <i type="logical" name="LVTOT"> F  </i>
  <i type="logical" name="LVHAR"> F  </i>
  <i type="logical" name="LORBIT"> F  </i>
  <i type="int" name="NELM">   100</i>
 </incar>
 <kpoints>
  <generation param="Gamma">
   <v type="int" name="divisions">      20       20       20 </v>
   <v name="usershift">      0.00000000       0.00000000       0.00000000 </v>
   <v name="genvec1">      0.05000000       0.00000000       0.00000000 </v>
   <v name="genvec2">      0.00000000       0.05000000       0.00000000 </v>
   <v name="genvec3">      0.00000000       0.00000000       0.05000000 </v>
   <v name="shift">      0.00000000       0.00000000       0.00000000 </v>
  </generation>
  <varray name="kpointlist" >
   <v>       0.00000000       0.00000000       0.00000000 </v>
   <v>       0.05000000       0.00000000       0.00000000 </v>
   <v>       0.10000000       0.00000000       0.00000000 </v>
   <v>       0.15000000       0.00000000       0.00000000 </v>
   <v>       0.20000000       0.00000000       0.00000000 </v>
   <v>       0.25000000       0.00000000       0.00000000 </v>
   <v>       0.30000000       0.00000000       0.00000000 </v>
   <v>       0.35000000       0.00000000       0.00000000 </v>
   <v>       0.40000000       0.00000000       0.00000000 </v>
   <v>       0.45000000       0.00000000       0.00000000 </v>
   <v>       0.50000000       0.00000000       0.00000000 </v>
   <v>       0.05000000       0.05000000       0.00000000 </v>
   <v>       0.10000000       0.05000000       0.00000000 </v>
   <v>       0.15000000       0.05000000       0.00000000 </v>
   <v>       0.20000000       0.05000000       0.00000000 </v>
   <v>       0.25000000       0.05000000       0.00000000 </v>
   <v>       0.30000000       0.05000000       0.00000000 </v>
   <v>       0.35000000       0.05000000       0.00000000 </v>
   <v>       0.40000000       0.05000000       0.00000000 </v>
   <v>       0.45000000       0.05000000       0.00000000 </v>
   <v>       0.50000000       0.05000000       0.00000000 </v>
   <v>       0.10000000       0.10000000       0.00000000 </v>
   <v>       0.15000000       0.10000000       0.00000000 </v>
   <v>       0.20000000       0.10000000       0.00000000 </v>
   <v>       0.25000000       0.10000000       0.00000000 </v>
   <v>       0.30000000       0.10000000       0.00000000 </v>
   <v>       0.35000000       0.10000000       0.00000000 </v>
   <v>       0.40000000       0.10000000       0.00000000 </v>
   <v>       0.45000000       0.10000000       0.00000000 </v>
   <v>       0.50000000       0.10000000       0.00000000 </v>
   <v>       0.15000000       0.15000000       0.00000000 </v>
   <v>       0.20000000       0.15000000       0.00000000 </v>
   <v>       0.25000000       0.15000000       0.00000000 </v>
   <v>       0.30000000       0.15000000       0.00000000 </v>
   <v>       0.35000000       0.15000000       0.00000000 </v>
   <v>       0.40000000       0.15000000       0.00000000 </v>
   <v>       0.45000000       0.15000000       0.00000000 </v>
   <v>       0.50000000       0.15000000       0.00000000 </v>
   <v>       0.20000000       0.20000000       0.00000000 </v>
   <v>       0.25000000       0.20000000       0.00000000 </v>
   <v>       0.30000000       0.20000000       0.00000000 </v>
   <v>       0.35000000       0.20000000       0.00000000 </v>
   <v>       0.40000000       0.20000000       0.00000000 </v>
   <v>       0.45000000       0.20000000       0.00000000 </v>
   <v>       0.50000000       0.20000000       0.00000000 </v>
   <v>       0.25000000       0.25000000       0.00000000 </v>
   <v>       0.30000000       0.25000000       0.00000000 </v>
   <v>       0.35000000       0.25000000       0.00000000 </v>
   <v>       0.40000000       0.25000000       0.00000000 </v>
   <v>       0.45000000       0.25000000       0.00000000 </v>
   <v>       0.50000000       0.25000000       0.00000000 </v>
   <v>       0.30000000       0.30000000       0.00000000 </v>
   <v>       0.35000000       0.30000000       0.00000000 </v>
   <v>       0.40000000       0.30000000       0.00000000 </v>
   <v>       0.45000000       0.30000000       0.00000000 </v>
   <v>       0.50000000       0.30000000       0.00000000 </v>
   <v>       0.35000000       0.35000000       0.00000000 </v>
   <v>       0.40000000       0.35000000       0.00000000 </v>
   <v>       0.45000000       0.35000000       0.00000000 </v>
   <v>       0.50000000       0.35000000       0.00000000 </v>
   <v>       0.40000000       0.40000000       0.00000000 </v>
   <v>       0.45000000       0.40000000       0.00000000 </v>
   <v>       0.50000000       0.40000000       0.00000000 </v>
   <v>       0.45000000       0.45000000       0.00000000 </v>
   <v>       0.50000000       0.45000000       0.00000000 </v>
   <v>       0.50000000       0.50000000       0.00000000 </v>
   <v>       0.05000000       0.05000000       0.05000000 </v>
   <v>       0.10000000       0.05000000       0.05000000 </v>
   <v>       0.15000000       0.05000000       0.05000000 </v>
   <v>       0.20000000       0.05000000       0.05000000 </v>
   <v>       0.25000000       0.05000000       0.05000000 </v>
   <v>       0.30000000       0.05000000       0.05000000 </v>
   <v>       0.35000000       0.05000000       0.05000000 </v>
   <v>       0.40000000       0.05000000       0.05000000 </v>
   <v>       0.45000000       0.05000000       0.05000000 </v>
   <v>       0.50000000       0.05000000       0.05000000 </v>
   <v>       0.10000000       0.10000000       0.05000000 </v>
   <v>       0.15000000       0.10000000       0.05000000 </v>
   <v>       0.20000000       0.10000000       0.05000000 </v>
   <v>       0.25000000       0.10000000       0.05000000 </v>
   <v>       0.30000000       0.10000000       0.05000000 </v>
   <v>       0.35000000       0.10000000       0.05000000 </v>
   <v>       0.40000000       0.10000000       0.05000000 </v>
   <v>       0.45000000       0.10000000       0.05000000 </v>
   <v>       0.50000000       0.10000000       0.05000000 </v>
   <v>       0.15000000       0.15000000       0.05000000 </v>
   <v>       0.20000000       0.15000000       0.05000000 </v>
   <v>       0.25000000       0.15000000       0.05000000 </v>
   <v>       0.30000000       0.15000000       0.05000000 </v>
   <v>       0.35000000       0.15000000       0.05000000 </v>
   <v>       0.40000000       0.15000000       0.05000000 </v>
   <v>       0.45000000       0.15000000       0.05000000 </v>
   <v>       0.50000000       0.15000000       0.05000000 </v>
   <v>       0.20000000       0.20000000       0.05000000 </v>
   <v>       0.25000000       0.20000000       0.05000000 </v>
   <v>       0.30000000       0.20000000       0.05000000 </v>
   <v>       0.35000000       0.20000000       0.05000000 </v>
   <v>       0.40000000       0.20000000       0.05000000 </v>
   <v>       0.45000000       0.20000000       0.05000000 </v>
   <v>       0.50000000       0.20000000       0.05000000 </v>
   <v>       0.25000000       0.25000000       0.05000000 </v>
   <v>       0.30000000       0.25000000       0.05000000 </v>
   <v>       0.35000000       0.25000000       0.05000000 </v>
   <v>       0.40000000       0.25000000       0.05000000 </v>
   <v>       0.45000000       0.25000000       0.05000000 </v>
   <v>       0.50000000       0.25000000       0.05000000 </v>
   <v>       0.30000000       0.30000000       0.05000000 </v>
   <v>       0.35000000       0.30000000       0.05000000 </v>
   <v>       0.40000000       0.30000000       0.05000000 </v>
   <v>       0.45000000       0.30000000       0.05000000 </v>
   <v>       0.50000000       0.30000000       0.05000000 </v>
   <v>       0.35000000       0.35000000       0.05000000 </v>
   <v>       0.40000000       0.35000000       0.05000000 </v>
   <v>       0.45000000       0.35000000       0.05000000 </v>
   <v>       0.50000000       0.35000000       0.05000000 </v>
   <v>       0.40000000       0.40000000       0.05000000 </v>
   <v>       0.45000000       0.40000000       0.05000000 </v>
   <v>       0.50000000       0.40000000       0.05000000 </v>
   <v>       0.45000000       0.45000000       0.05000000 </v>
   <v>       0.50000000       0.45000000       0.05000000 </v>
   <v>       0.50000000       0.50000000       0.05000000 </v>
   <v>       0.10000000       0.10000000       0.10000000 </v>
   <v>       0.15000000       0.10000000       0.10000000 </v>
   <v>       0.20000000       0.10000000       0.10000000 </v>
   <v>       0.25000000       0.10000000       0.10000000 </v>
   <v>       0.30000000       0.10000000       0.10000000 </v>
   <v>       0.35000000       0.10000000       0.10000000 </v>
   <v>       0.40000000       0.10000000       0.10000000 </v>
   <v>       0.45000000       0.10000000       0.10000000 </v>
   <v>       0.50000000       0.10000000       0.10000000 </v>
   <v>       0.15000000       0.15000000       0.10000000 </v>
   <v>       0.20000000       0.15000000       0.10000000 </v>
   <v>       0.25000000       0.15000000       0.10000000 </v>
   <v>       0.30000000       0.15000000       0.10000000 </v>
   <v>       0.35000000       0.15000000       0.10000000 </v>
   <v>       0.40000000       0.15000000       0.10000000 </v>
   <v>       0.45000000       0.15000000       0.10000000 </v>
   <v>       0.50000000       0.15000000       0.10000000 </v>
   <v>       0.20000000       0.20000000       0.10000000 </v>
   <v>       0.25000000       0.20000000       0.10000000 </v>
   <v>       0.30000000       0.20000000       0.10000000 </v>
   <v>       0.35000000       0.20000000       0.10000000 </v>
   <v>       0.40000000       0.20000000       0.10000000 </v>
   <v>       0.45000000       0.20000000       0.10000000 </v>
   <v>       0.50000000       0.20000000       0.10000000 </v>
   <v>       0.25000000       0.25000000       0.10000000 </v>
   <v>       0.30000000       0.25000000       0.10000000 </v>
   <v>       0.35000000       0.25000000       0.10000000 </v>
   <v>       0.40000000       0.25000000       0.10000000 </v>
   <v>       0.45000000       0.25000000       0.10000000 </v>
   <v>       0.50000000       0.25000000       0.10000000 </v>
   <v>       0.30000000       0.30000000       0.10000000 </v>
   <v>       0.35000000       0.30000000       0.10000000 </v>
   <v>       0.40000000       0.30000000       0.10000000 </v>
   <v>       0.45000000       0.30000000       0.10000000 </v>
   <v>       0.50000000       0.30000000       0.10000000 </v>
   <v>       0.35000000       0.35000000       0.10000000 </v>
   <v>       0.40000000       0.35000000       0.10000000 </v>
   <v>       0.45000000       0.35000000       0.10000000 </v>
   <v>       0.50000000       0.35000000       0.10000000 </v>
   <v>       0.40000000       0.40000000       0.10000000 </v>
   <v>       0.45000000       0.40000000       0.10000000 </v>
   <v>       0.50000000       0.40000000       0.10000000 </v>
   <v>       0.45000000       0.45000000       0.10000000 </v>
   <v>       0.50000000       0.45000000       0.10000000 </v>
   <v>       0.50000000       0.50000000       0.10000000 </v>
   <v>       0.15000000       0.15000000       0.15000000 </v>
   <v>       0.20000000       0.15000000       0.15000000 </v>
   <v>       0.25000000       0.15000000       0.15000000 </v>
   <v>       0.30000000       0.15000000       0.15000000 </v>
   <v>       0.35000000       0.15000000       0.15000000 </v>
   <v>       0.40000000       0.15000000       0.15000000 </v>
   <v>       0.45000000       0.15000000       0.15000000 </v>
   <v>       0.50000000       0.15000000       0.15000000 </v>
   <v>       0.20000000       0.20000000       0.15000000 </v>
   <v>       0.25000000       0.20000000       0.15000000 </v>
   <v>       0.30000000       0.20000000       0.15000000 </v>
   <v>       0.35000000       0.20000000       0.15000000 </v>
   <v>       0.40000000       0.20000000       0.15000000 </v>
   <v>       0.45000000       0.20000000       0.15000000 </v>
   <v>       0.50000000       0.20000000       0.15000000 </v>
   <v>       0.25000000       0.25000000       0.15000000 </v>
   <v>       0.30000000       0.25000000       0.15000000 </v>
   <v>       0.35000000       0.25000000       0.15000000 </v>
   <v>       0.40000000       0.25000000       0.15000000 </v>
   <v>       0.45000000       0.25000000       0.15000000 </v>
   <v>       0.50000000       0.25000000       0.15000000 </v>
   <v>       0.30000000       0.30000000       0.15000000 </v>
   <v>       0.35000000       0.30000000       0.15000000 </v>
   <v>       0.40000000       0.30000000       0.15000000 </v>
   <v>       0.45000000       0.30000000       0.15000000 </v>
   <v>       0.50000000       0.30000000       0.15000000 </v>
   <v>       0.35000000       0.35000000       0.15000000 </v>
   <v>       0.40000000       0.35000000       0.15000000 </v>
   <v>       0.45000000       0.35000000       0.15000000 </v>
   <v>       0.50000000       0.35000000       0.15000000 </v>
   <v>       0.40000000       0.40000000       0.15000000 </v>
   <v>       0.45000000       0.40000000       0.15000000 </v>
   <v>       0.50000000       0.40000000       0.15000000 </v>
   <v>       0.45000000       0.45000000       0.15000000 </v>
   <v>       0.50000000       0.45000000       0.15000000 </v>
   <v>       0.50000000       0.50000000       0.15000000 </v>
   <v>       0.20000000       0.20000000       0.20000000 </v>
   <v>       0.25000000       0.20000000       0.20000000 </v>
   <v>       0.30000000       0.20000000       0.20000000 </v>
   <v>       0.35000000       0.20000000       0.20000000 </v>
   <v>       0.40000000       0.20000000       0.20000000 </v>
   <v>       0.45000000       0.20000000       0.20000000 </v>
   <v>       0.50000000       0.20000000       0.20000000 </v>
   <v>       0.25000000       0.25000000       0.20000000 </v>
   <v>       0.30000000       0.25000000       0.20000000 </v>
   <v>       0.35000000       0.25000000       0.20000000 </v>
   <v>       0.40000000       0.25000000       0.20000000 </v>
   <v>       0.45000000       0.25000000       0.20000000 </v>
   <v>       0.50000000       0.25000000       0.20000000 </v>
   <v>       0.30000000       0.30000000       0.20000000 </v>
   <v>       0.35000000       0.30000000       0.20000000 </v>
   <v>       0.40000000       0.30000000       0.20000000 </v>
   <v>       0.45000000       0.30000000       0.20000000 </v>
   <v>       0.50000000       0.30000000       0.20000000 </v>
   <v>       0.35000000       0.35000000       0.20000000 </v>
   <v>       0.40000000       0.35000000       0.20000000 </v>
   <v>       0.45000000       0.35000000       0.20000000 </v>
   <v>       0.50000000       0.35000000       0.20000000 </v>
   <v>       0.40000000       0.40000000       0.20000000 </v>
   <v>       0.45000000       0.40000000       0.20000000 </v>
   <v>       0.50000000       0.40000000       0.20000000 </v>
   <v>       0.45000000       0.45000000       0.20000000 </v>
   <v>       0.50000000       0.45000000       0.20000000 </v>
   <v>       0.50000000       0.50000000       0.20000000 </v>
   <v>       0.25000000       0.25000000       0.25000000 </v>
   <v>       0.30000000       0.25000000       0.25000000 </v>
   <v>       0.35000000       0.25000000       0.25000000 </v>
   <v>       0.40000000       0.25000000       0.25000000 </v>
   <v>       0.45000000       0.25000000       0.25000000 </v>
   <v>       0.50000000       0.25000000       0.25000000 </v>
   <v>       0.30000000       0.30000000       0.25000000 </v>
   <v>       0.35000000       0.30000000       0.25000000 </v>
   <v>       0.40000000       0.30000000       0.25000000 </v>
   <v>       0.45000000       0.30000000       0.25000000 </v>
   <v>       0.50000000       0.30000000       0.25000000 </v>
   <v>       0.35000000       0.35000000       0.25000000 </v>
   <v>       0.40000000       0.35000000       0.25000000 </v>
   <v>       0.45000000       0.35000000       0.25000000 </v>
   <v>       0.50000000       0.35000000       0.25000000 </v>
   <v>       0.40000000       0.40000000       0.25000000 </v>
   <v>       0.45000000       0.40000000       0.25000000 </v>
   <v>       0.50000000       0.40000000       0.25000000 </v>
   <v>       0.45000000       0.45000000       0.25000000 </v>
   <v>       0.50000000       0.45000000       0.25000000 </v>
   <v>       0.50000000       0.50000000       0.25000000 </v>
   <v>       0.30000000       0.30000000       0.30000000 </v>
   <v>       0.35000000       0.30000000       0.30000000 </v>
   <v>       0.40000000       0.30000000       0.30000000 </v>
   <v>       0.45000000       0.30000000       0.30000000 </v>
   <v>       0.50000000       0.30000000       0.30000000 </v>
   <v>       0.35000000       0.35000000       0.30000000 </v>
   <v>       0.40000000       0.35000000       0.30000000 </v>
   <v>       0.45000000       0.35000000       0.30000000 </v>
   <v>       0.50000000       0.35000000       0.30000000 </v>
   <v>       0.40000000       0.40000000       0.30000000 </v>
   <v>       0.45000000       0.40000000       0.30000000 </v>
   <v>       0.50000000       0.40000000       0.30000000 </v>
   <v>       0.45000000       0.45000000       0.30000000 </v>
   <v>       0.50000000       0.45000000       0.30000000 </v>
   <v>       0.50000000       0.50000000       0.30000000 </v>
   <v>       0.35000000       0.35000000       0.35000000 </v>
   <v>       0.40000000       0.35000000       0.35000000 </v>
   <v>       0.45000000       0.35000000       0.35000000 </v>
   <v>       0.50000000       0.35000000       0.35000000 </v>
   <v>       0.40000000       0.40000000       0.35000000 </v>
   <v>       0.45000000       0.40000000       0.35000000 </v>
   <v>       0.50000000       0.40000000       0.35000000 </v>
   <v>       0.45000000       0.45000000       0.35000000 </v>
   <v>       0.50000000       0.45000000       0.35000000 </v>
   <v>       0.50000000       0.50000000       0.35000000 </v>
   <v>       0.40000000       0.40000000       0.40000000 </v>
   <v>       0.45000000       0.40000000       0.40000000 </v>
   <v>       0.50000000       0.40000000       0.40000000 </v>
   <v>       0.45000000       0.45000000       0.40000000 </v>
   <v>       0.50000000       0.45000000       0.40000000 </v>
   <v>       0.50000000       0.50000000       0.40000000 </v>
   <v>       0.45000000       0.45000000       0.45000000 </v>
   <v>       0.50000000       0.45000000       0.45000000 </v>
   <v>       0.50000000       0.50000000       0.45000000 </v>
   <v>       0.50000000       0.50000000       0.50000000 </v>
  </varray>
  <varray name="weights" >
   <v>       0.00012500 </v>
   <v>       0.00075000 </v>
   <v>       0.00075000 </v>
   <v>       0.00075000 </v>
   <v>       0.00075000 </v>
   <v>       0.00075000 </v>
   <v>       0.00075000 </v>
   <v>       0.00075000 </v>
   <v>       0.00075000 </v>
   <v>       0.00075000 </v>
   <v>       0.00037500 </v>
   <v>       0.00150000 </v>
   <v>       0.00300000 </v>
   <v>       0.00300000 </v>
   <v>       0.00300000 </v>
   <v>       0.00300000 </v>
   <v>       0.00300000 </v>
   <v>       0.00300000 </v>
   <v>       0.00300000 </v>
   <v>       0.00300000 </v>
   <v>       0.00150000 </v>
   <v>       0.00150000 </v>
   <v>       0.00300000 </v>
   <v>       0.00300000 </v>
   <v>       0.00300000 </v>
   <v>       0.00300000 </v>
   <v>       0.00300000 </v>
   <v>       0.00300000 </v>
   <v>       0.00300000 </v>
   <v>       0.00150000 </v>
   <v>       0.00150000 </v>
   <v>       0.00300000 </v>
   <v>       0.00300000 </v>
   <v>       0.00300000 </v>
   <v>       0.00300000 </v>
   <v>       0.00300000 </v>
   <v>       0.00300000 </v>
   <v>       0.00150000 </v>
   <v>       0.00150000 </v>
   <v>       0.00300000 </v>
   <v>       0.00300000 </v>
   <v>       0.00300000 </v>
   <v>       0.00300000 </v>
   <v>       0.00300000 </v>
   <v>       0.00150000 </v>
   <v>       0.00150000 </v>
   <v>       0.00300000 </v>
   <v>       0.00300000 </v>
   <v>       0.00300000 </v>
   <v>       0.00300000 </v>
   <v>       0.00150000 </v>
   <v>       0.00150000 </v>
   <v>       0.00300000 </v>
   <v>       0.00300000 </v>
   <v>       0.00300000 </v>
   <v>       0.00150000 </v>
   <v>       0.00150000 </v>
   <v>       0.00300000 </v>
   <v>       0.00300000 </v>
   <v>       0.00150000 </v>
   <v>       0.00150000 </v>
   <v>       0.00300000 </v>
   <v>       0.00150000 </v>
   <v>       0.00150000 </v>
   <v>       0.00150000 </v>
   <v>       0.00037500 </v>
   <v>       0.00100000 </v>
   <v>       0.00300000 </v>
   <v>       0.00300000 </v>
   <v>       0.00300000 </v>
   <v>       0.00300000 </v>
   <v>       0.00300000 </v>
   <v>       0.00300000 </v>
   <v>       0.00300000 </v>
   <v>       0.00300000 </v>
   <v>       0.00150000 </v>
   <v>       0.00300000 </v>
   <v>       0.00600000 </v>
   <v>       0.00600000 </v>
   <v>       0.00600000 </v>
   <v>       0.00600000 </v>
   <v>       0.00600000 </v>
   <v>       0.00600000 </v>
   <v>       0.00600000 </v>
   <v>       0.00300000 </v>
   <v>       0.00300000 </v>
   <v>       0.00600000 </v>
   <v>       0.00600000 </v>
   <v>       0.00600000 </v>
   <v>       0.00600000 </v>
   <v>       0.00600000 </v>
   <v>       0.00600000 </v>
   <v>       0.00300000 </v>
   <v>       0.00300000 </v>
   <v>       0.00600000 </v>
   <v>       0.00600000 </v>
   <v>       0.00600000 </v>
   <v>       0.00600000 </v>
   <v>       0.00600000 </v>
   <v>       0.00300000 </v>
   <v>       0.00300000 </v>
   <v>       0.00600000 </v>
   <v>       0.00600000 </v>
   <v>       0.00600000 </v>
   <v>       0.00600000 </v>
   <v>       0.00300000 </v>
   <v>       0.00300000 </v>
   <v>       0.00600000 </v>
   <v>       0.00600000 </v>
   <v>       0.00600000 </v>
   <v>       0.00300000 </v>
   <v>       0.00300000 </v>
   <v>       0.00600000 </v>
   <v>       0.00600000 </v>
   <v>       0.00300000 </v>
   <v>       0.00300000 </v>
   <v>       0.00600000 </v>
   <v>       0.00300000 </v>
   <v>       0.00300000 </v>
   <v>       0.00300000 </v>
   <v>       0.00075000 </v>
   <v>       0.00100000 </v>
   <v>       0.00300000 </v>
   <v>       0.00300000 </v>
   <v>       0.00300000 </v>
   <v>       0.00300000 </v>
   <v>       0.00300000 </v>
   <v>       0.00300000 </v>
   <v>       0.00300000 </v>
   <v>       0.00150000 </v>
   <v>       0.00300000 </v>
   <v>       0.00600000 </v>
   <v>       0.00600000 </v>
   <v>       0.00600000 </v>
   <v>       0.00600000 </v>
   <v>       0.00600000 </v>
   <v>       0.00600000 </v>
   <v>       0.00300000 </v>
   <v>       0.00300000 </v>
   <v>       0.00600000 </v>
   <v>       0.00600000 </v>
   <v>       0.00600000 </v>
   <v>       0.00600000 </v>
   <v>       0.00600000 </v>
   <v>       0.00300000 </v>
   <v>       0.00300000 </v>
   <v>       0.00600000 </v>
   <v>       0.00600000 </v>
   <v>       0.00600000 </v>
   <v>       0.00600000 </v>
   <v>       0.00300000 </v>
   <v>       0.00300000 </v>
   <v>       0.00600000 </v>
   <v>       0.00600000 </v>
   <v>       0.00600000 </v>
   <v>       0.00300000 </v>
   <v>       0.00300000 </v>
   <v>       0.00600000 </v>
   <v>       0.00600000 </v>
   <v>       0.00300000 </v>
   <v>       0.00300000 </v>
   <v>       0.00600000 </v>
   <v>       0.00300000 </v>
   <v>       0.00300000 </v>
   <v>       0.00300000 </v>
   <v>       0.00075000 </v>
   <v>       0.00100000 </v>
   <v>       0.00300000 </v>
   <v>       0.00300000 </v>
   <v>       0.00300000 </v>
   <v>       0.00300000 </v>
   <v>       0.00300000 </v>
   <v>       0.00300000 </v>
   <v>       0.00150000 </v>
   <v>       0.00300000 </v>
   <v>       0.00600000 </v>
   <v>       0.00600000 </v>
   <v>       0.00600000 </v>
   <v>       0.00600000 </v>
   <v>       0.00600000 </v>
   <v>       0.00300000 </v>
   <v>       0.00300000 </v>
   <v>       0.00600000 </v>
   <v>       0.00600000 </v>
   <v>       0.00600000 </v>
   <v>       0.00600000 </v>
   <v>       0.00300000 </v>
   <v>       0.00300000 </v>
   <v>       0.00600000 </v>
   <v>       0.00600000 </v>
   <v>       0.00600000 </v>
   <v>       0.00300000 </v>
   <v>       0.00300000 </v>
   <v>       0.00600000 </v>
   <v>       0.00600000 </v>
   <v>       0.00300000 </v>
   <v>       0.00300000 </v>
   <v>       0.00600000 </v>
   <v>       0.00300000 </v>
   <v>       0.00300000 </v>
   <v>       0.00300000 </v>
   <v>       0.00075000 </v>
   <v>       0.00100000 </v>
   <v>       0.00300000 </v>
   <v>       0.00300000 </v>
   <v>       0.00300000 </v>
   <v>       0.00300000 </v>
   <v>       0.00300000 </v>
   <v>       0.00150000 </v>
   <v>       0.00300000 </v>
   <v>       0.00600000 </v>
   <v>       0.00600000 </v>
   <v>       0.00600000 </v>
   <v>       0.00600000 </v>
   <v>       0.00300000 </v>
   <v>       0.00300000 </v>
   <v>       0.00600000 </v>
   <v>       0.00600000 </v>
   <v>       0.00600000 </v>
   <v>       0.00300000 </v>
   <v>       0.00300000 </v>
   <v>       0.00600000 </v>
   <v>       0.00600000 </v>
   <v>       0.00300000 </v>
   <v>       0.00300000 </v>
   <v>       0.00600000 </v>
   <v>       0.00300000 </v>
   <v>       0.00300000 </v>
   <v>       0.00300000 </v>
   <v>       0.00075000 </v>
   <v>       0.00100000 </v>
   <v>       0.00300000 </v>
   <v>       0.00300000 </v>
   <v>       0.00300000 </v>
   <v>       0.00300000 </v>
   <v>       0.00150000 </v>
   <v>       0.00300000 </v>
   <v>       0.00600000 </v>
   <v>       0.00600000 </v>
   <v>       0.00600000 </v>
   <v>       0.00300000 </v>
   <v>       0.00300000 </v>
   <v>       0.00600000 </v>
   <v>       0.00600000 </v>
   <v>       0.00300000 </v>
   <v>       0.00300000 </v>
   <v>       0.00600000 </v>
   <v>       0.00300000 </v>
   <v>       0.00300000 </v>
   <v>       0.00300000 </v>
   <v>       0.00075000 </v>
   <v>       0.00100000 </v>
   <v>       0.00300000 </v>
   <v>       0.00300000 </v>
   <v>       0.00300000 </v>
   <v>       0.00150000 </v>
   <v>       0.00300000 </v>
   <v>       0.00600000 </v>
   <v>       0.00600000 </v>
   <v>       0.00300000 </v>
   <v>       0.00300000 </v>
   <v>       0.00600000 </v>
   <v>       0.00300000 </v>
   <v>       0.00300000 </v>
   <v>       0.00300000 </v>
   <v>       0.00075000 </v>
   <v>       0.00100000 </v>
   <v>       0.00300000 </v>
   <v>       0.00300000 </v>
   <v>       0.00150000 </v>
   <v>       0.00300000 </v>
   <v>       0.00600000 </v>
   <v>       0.00300000 </v>
   <v>       0.00300000 </v>
   <v>       0.00300000 </v>
   <v>       0.00075000 </v>
   <v>       0.00100000 </v>
   <v>       0.00300000 </v>
   <v>       0.00150000 </v>
   <v>       0.00300000 </v>
   <v>       0.00300000 </v>
   <v>       0.00075000 </v>
   <v>       0.00100000 </v>
   <v>       0.00150000 </v>
   <v>       0.00075000 </v>
   <v>       0.00012500 </v>
  </varray>
 </kpoints>
 <parameters>
  <separator name="general" >
   <i type="string" name="SYSTEM">jump2</i>
   <i type="logical" name="LCOMPAT"> F  </i>
  </separator>
  <separator name="electronic" >
   <i type="string" name="PREC">normal</i>
   <i name="ENMAX">    325.00000000</i>
   <i name="ENAUG">    400.00000000</i>
   <i name="EDIFF">      0.00010000</i>
   <i type="int" name="IALGO">    48</i>
   <i type="int" name="IWAVPR">    10</i>
   <i type="int" name="NBANDS">     8</i>
   <i name="NELECT">      1.00000000</i>
   <i type="int" name="TURBO">     0</i>
   <i type="int" name="IRESTART">     0</i>
   <i type="int" name="NREBOOT">     0</i>
   <i type="int" name="NMIN">     0</i>
   <i name="EREF">      0.00000000</i>
   <separator name="electronic smearing" >
    <i type="int" name="ISMEAR">     0</i>
    <i name="SIGMA">      0.08000000</i>
    <i name="KSPACING">      0.23000000</i>
    <i type="logical" name="KGAMMA"> T  </i>
   </separator>
   <separator name="electronic projectors" >
    <i type="logical" name="LREAL"> T  </i>
    <v name="ROPT">     -0.00050000</v>
    <i type="int" name="LMAXPAW">  -100</i>
    <i type="int" name="LMAXMIX">     2</i>
    <i type="logical" name="NLSPLINE"> F  </i>
   </separator>
   <separator name="electronic startup" >
    <i type="int" name="ISTART">     1</i>
    <i type="int" name="ICHARG">    11</i>
    <i type="int" name="INIWAV">     1</i>
   </separator>
   <separator name="electronic spin" >
    <i type="int" name="ISPIN">     1</i>
    <i type="logical" name="LNONCOLLINEAR"> F  </i>
    <v name="MAGMOM">      1.00000000</v>
    <i name="NUPDOWN">     -1.00000000</i>
    <i type="logical" name="LSORBIT"> F  </i>
    <v name="SAXIS">      0.00000000      0.00000000      1.00000000</v>
    <i type="logical" name="LSPIRAL"> F  </i>
    <v name="QSPIRAL">      0.00000000      0.00000000      0.00000000</v>
    <i type="logical" name="LZEROZ"> F  </i>
   </separator>
   <separator name="electronic exchange-correlation" >
    <i type="logical" name="LASPH"> F  </i>
    <i type="logical" name="LMETAGGA"> F  </i>
   </separator>
   <separator name="electronic convergence" >
    <i type="int" name="NELM">   100</i>
    <i type="int" name="NELMDL">     0</i>
    <i type="int" name="NELMIN">     2</i>
    <i name="ENINI">    325.00000000</i>
    <separator name="electronic convergence detail" >
     <i type="logical" name="LDIAG"> T  </i>
     <i type="logical" name="LSUBROT"> T  </i>
     <i name="WEIMIN">      0.00000000</i>
     <i name="EBREAK">      0.00000313</i>
     <i name="DEPER">      0.30000000</i>
     <i type="int" name="NRMM">     4</i>
     <i name="TIME">      0.40000000</i>
    </separator>
   </separator>
   <separator name="electronic mixer" >
    <i name="AMIX">      0.40000000</i>
    <i name="BMIX">      1.00000000</i>
    <i name="AMIN">      0.01000000</i>
    <i name="AMIX_MAG">      1.60000000</i>
    <i name="BMIX_MAG">      1.00000000</i>
    <separator name="electronic mixer details" >
     <i type="int" name="IMIX">     4</i>
     <i type="int" name="MAXMIX">   -45</i>
     <i name="WC">    100.00000000</i>
     <i type="int" name="INIMIX">     1</i>
     <i type="int" name="MIXPRE">     1</i>
     <i type="int" name="MREMOVE">     5</i>
    </separator>
   </separator>
   <separator name="electronic dipolcorrection" >
    <i type="logical" name="LDIPOL"> F  </i>
    <i type="logical" name="LMONO"> F  </i>
    <i type="int" name="IDIPOL">     0</i>
    <i name="EPSILON">      1.00000000</i>
    <v name="DIPOL">   -100.00000000   -100.00000000   -100.00000000</v>
    <i name="EFIELD">      0.00000000</i>
   </separator>
  </separator>
  <separator name="grids" >
   <i type="int" name="NGX">     6</i>
   <i type="int" name="NGY">     6</i>
   <i type="int" name="NGZ">     6</i>
   <i type="int" name="NGXF">    12</i>
   <i type="int" name="NGYF">    12</i>
   <i type="int" name="NGZF">    12</i>
   <i type="logical" name="ADDGRID"> T  </i>
  </separator>
  <separator name="ionic" >
   <i type="int" name="NSW">     0</i>
   <i type="int" name="IBRION">    -1</i>
   <i type="int" name="ISIF">     2</i>
   <i name="PSTRESS">      0.00000000</i>
   <i name="EDIFFG">     -0.01000000</i>
   <i type="int" name="NFREE">     0</i>
   <i name="POTIM">      0.50000000</i>
   <i name="SMASS">     -3.00000000</i>
   <i name="SCALEE">      1.00000000</i>
  </separator>
  <separator name="ionic md" >
   <i name="TEBEG">      0.00010000</i>
   <i name="TEEND">      0.00010000</i>
   <i type="int" name="NBLOCK">     1</i>
   <i type="int" name="KBLOCK">     1</i>
   <i type="int" name="NPACO">   256</i>
   <i name="APACO">     16.00000000</i>
  </separator>
  <separator name="symmetry" >
   <i type="int" name="ISYM">     2</i>
   <i name="SYMPREC">      0.00001000</i>
  </separator>
  <separator name="dos" >
   <i type="logical" name="LORBIT"> F  </i>
   <v name="RWIGS">     -1.00000000</v>
   <i type="int" name="NEDOS">  3001</i>
   <i name="EMIN">     10.00000000</i>
   <i name="EMAX">    -10.00000000</i>
   <i name="EFERMI">      0.00000000</i>
  </separator>
  <separator name="writing" >
   <i type="int" name="NWRITE">     2</i>
   <i type="logical" name="LWAVE"> T  </i>
   <i type="logical" name="LCHARG"> F  </i>
   <i type="logical" name="LPARD"> F  </i>
   <i type="logical" name="LVTOT"> F  </i>
   <i type="logical" name="LVHAR"> F  </i>
   <i type="logical" name="LELF"> F  </i>
   <i type="logical" name="LOPTICS"> F  </i>
   <v name="STM">      0.00000000      0.00000000      0.00000000      0.00000000      0.00000000      0.00000000      0.00000000</v>
  </separator>
  <separator name="performance" >
   <i type="int" name="NPAR">     4</i>
   <i type="int" name="NSIM">     4</i>
   <i type="int" name="NBLK">    -1</i>
   <i type="logical" name="LPLANE"> T  </i>
   <i type="logical" name="LSCALAPACK"> T  </i>
   <i type="logical" name="LSCAAWARE"> T  </i>
   <i type="logical" name="LSCALU"> F  </i>
   <i type="logical" name="LASYNC"> F  </i>
   <i type="logical" name="LORBITALREAL"> F  </i>
  </separator>
  <separator name="miscellaneous" >
   <i type="int" name="IDIOT">     3</i>
   <i type="logical" name="LMUSIC"> F  </i>
   <v name="POMASS">      1.00000000</v>
   <v name="DARWINR">      0.00000000</v>
   <v name="DARWINV">      1.00000000</v>
   <i type="logical" name="LCORR"> T  </i>
  </separator>
  <i type="logical" name="GGA_COMPAT"> T  </i>
  <i type="logical" name="LBERRY"> F  </i>
  <i type="int" name="ICORELEVEL">     0</i>
  <i type="logical" name="LDAU"> F  </i>
  <i type="int" name="I_CONSTRAINED_M">     0</i>
  <separator name="electronic exchange-correlation" >
   <i type="string" name="GGA">--</i>
   <i type="int" name="VOSKOWN">     0</i>
   <i type="logical" name="LHFCALC"> F  </i>
   <i type="string" name="PRECFOCK"></i>
   <i type="logical" name="LHFONE"> F  </i>
   <i type="logical" name="LRHFCALC"> F  </i>
   <i type="logical" name="LTHOMAS"> F  </i>
   <i type="logical" name="LMODELHF"> F  </i>
   <i name="ENCUT4O">     -1.00000000</i>
   <i type="int" name="EXXOEP">     0</i>
   <i type="int" name="FOURORBIT">     0</i>
   <i name="AEXX">      0.00000000</i>
   <i name="HFALPHA">      0.00000000</i>
   <i name="ALDAX">      1.00000000</i>
   <i name="AGGAX">      1.00000000</i>
   <i name="ALDAC">      1.00000000</i>
   <i name="AGGAC">      1.00000000</i>
   <i type="int" name="NKREDX">     1</i>
   <i type="int" name="NKREDY">     1</i>
   <i type="int" name="NKREDZ">     1</i>
   <i type="logical" name="SHIFTRED"> F  </i>
   <i type="logical" name="ODDONLY"> F  </i>
   <i type="logical" name="EVENONLY"> F  </i>
   <i type="int" name="LMAXFOCK">     0</i>
   <i type="int" name="NMAXFOCKAE">     0</i>
   <i type="logical" name="LFOCKAEDFT"> F  </i>
   <i name="HFSCREEN">      0.00000000</i>
   <i name="HFSCREENC">      0.00000000</i>
  </separator>
  <separator name="vdW DFT" >
   <i type="logical" name="LUSE_VDW"> F  </i>
   <i name="Zab_VDW">     -0.84910000</i>
   <i name="PARAM1">      0.12340000</i>
   <i name="PARAM2">      1.00000000</i>
   <i name="PARAM3">      0.00000000</i>
  </separator>
  <separator name="model GW" >
   <i type="int" name="MODEL_GW">     0</i>
   <i name="MODEL_EPS0">      1.77432948</i>
   <i name="MODEL_ALPHA">      1.00000000</i>
  </separator>
  <separator name="linear response parameters" >
   <i type="logical" name="LEPSILON"> F  </i>
   <i type="logical" name="LRPA"> F  </i>
   <i type="logical" name="LNABLA"> F  </i>
   <i type="logical" name="LVEL"> F  </i>
   <i type="int" name="KINTER">     0</i>
   <i name="CSHIFT">      0.10000000</i>
   <i name="OMEGAMAX">     -1.00000000</i>
  </separator>
  <separator name="orbital magnetization" >
   <i type="logical" name="NUCIND"> F  </i>
   <v name="MAGPOS">      0.00000000      0.00000000      0.00000000</v>
   <i type="logical" name="LNICSALL"> T  </i>
   <i type="logical" name="ORBITALMAG"> F  </i>
   <i type="logical" name="LMAGBLOCH"> F  </i>
   <i type="logical" name="LCHIMAG"> F  </i>
   <i type="logical" name="LGAUGE"> T  </i>
   <i type="int" name="MAGATOM">     0</i>
   <v name="MAGDIPOL">      0.00000000      0.00000000      0.00000000</v>
   <v name="AVECCONST">      0.00000000      0.00000000      0.00000000</v>
  </separator>
  <separator name="response functions" >
   <i type="logical" name="LADDER"> F  </i>
   <i type="logical" name="LHARTREE"> T  </i>
   <i type="int" name="IBSE">     0</i>
   <i type="logical" name="LTCTE"> F  </i>
   <i type="logical" name="LTETE"> F  </i>
   <i type="logical" name="LFXCEPS"> F  </i>
   <i type="logical" name="L2ORDER"> F  </i>
   <i type="logical" name="LUSEW"> F  </i>
   <i name="ENCUTGW">     -2.00000000</i>
   <i name="ENCUTGWSOFT">     -2.00000000</i>
   <i name="ENCUTLF">     -1.00000000</i>
   <i type="int" name="LMAXMP2">    -1</i>
   <i name="SCISSOR">      0.00000000</i>
   <i type="int" name="NOMEGA">     0</i>
   <i type="int" name="NOMEGAR">     0</i>
   <i type="int" name="NBANDSGW">    -1</i>
   <i type="int" name="NBANDSO">    -1</i>
   <i type="int" name="NBANDSV">    -1</i>
   <i name="OPTEMAX">      0.00000000</i>
   <i type="int" name="NELM">   100</i>
   <i type="int" name="DIM">     3</i>
   <i type="int" name="ANTIRES">     0</i>
   <i name="OMEGAMAX">    -30.00000000</i>
   <i name="OMEGATL">   -200.00000000</i>
   <i type="int" name="OMEGAGRID">     0</i>
   <i name="CSHIFT">     -0.10000000</i>
   <i type="logical" name="SELFENERGY"> F  </i>
   <i type="logical" name="LSPECTRAL"> F  </i>
   <i type="logical" name="ODDONLYGW"> F  </i>
   <i type="logical" name="EVENONLYGW"> F  </i>
   <i type="int" name="NKREDLFX">     1</i>
   <i type="int" name="NKREDLFY">     1</i>
   <i type="int" name="NKREDLFZ">     1</i>
   <i type="int" name="MAXMEM">  1800</i>
   <i type="int" name="TELESCOPE">     0</i>
  </separator>
 </parameters>
 <atominfo>
  <atoms>       1 </atoms>
  <types>       1 </types>
  <array name="atoms" >
   <dimension dim="1">ion</dimension>
   <field type="string">element</field>
   <field type="int">atomtype</field>
   <set>
    <rc><c>H </c><c>   1</c></rc>
   </set>
  </array>
  <array name="atomtypes" >
   <dimension dim="1">type</dimension>
   <field type="int">atomspertype</field>
   <field type="string">element</field>
   <field>mass</field>
   <field>valence</field>
   <field type="string">pseudopotential</field>
   <set>
    <rc><c>   1</c><c>H </c><c>      1.00000000</c><c>      1.00000000</c><c> PAW_PBE H 15Jun2001                    </c></rc>
   </set>
  </array>
 </atominfo>
 <structure name="initialpos" >
  <crystal>
   <varray name="basis" >
    <v>       1.43536055       0.00000000       0.00000000 </v>
    <v>       0.00000000       1.43536055       0.00000000 </v>
    <v>       0.00000000       0.00000000       1.43536055 </v>
   </varray>
   <i name="volume">      2.95721580 </i>
   <varray name="rec_basis" >
    <v>       0.69668907       0.00000000       0.00000000 </v>
    <v>       0.00000000       0.69668907       0.00000000 </v>
    <v>       0.00000000       0.00000000       0.69668907 </v>
   </varray>
  </crystal>
  <varray name="positions" >
   <v>       0.00000000       0.00000000       0.00000000 </v>
  </varray>
 </structure>
 <calculation>
  <scstep>
   <time name="diag">    0.27    0.55</time>
   <time name="diis">    0.26    0.51</time>
   <time name="orth">    0.05    0.11</time>
   <time name="total">    0.59    1.18</time>
   <energy>
    <i name="alphaZ">      0.82381590 </i>
    <i name="ewald">    -14.23213143 </i>
    <i name="hartreedc">     -0.36095373 </i>
    <i name="XCdc">      2.76127529 </i>
    <i name="pawpsdc">      1.82026030 </i>
    <i name="pawaedc">     -1.83252046 </i>
    <i name="eentropy">     -0.00031215 </i>
    <i name="bandstr">     -3.72522445 </i>
    <i name="atom">     12.45896517 </i>
    <i name="e_fr_energy">     -2.28682556 </i>
    <i name="e_wo_entrp">     -2.28651341 </i>
    <i name="e_0_energy">     -2.28666949 </i>
   </energy>
  </scstep>
  <scstep>
   <time name="diag">    0.27    0.55</time>
   <time name="diis">    0.26    0.53</time>
   <time name="orth">    0.06    0.11</time>
   <time name="total">    0.59    1.19</time>
   <energy>
    <i name="alphaZ">      0.82381590 </i>
    <i name="ewald">    -14.23213143 </i>
    <i name="hartreedc">     -0.36095373 </i>
    <i name="XCdc">      2.76127529 </i>
    <i name="pawpsdc">      1.82026030 </i>
    <i name="pawaedc">     -1.83252046 </i>
    <i name="eentropy">     -0.00031215 </i>
    <i name="bandstr">     -3.72522445 </i>
    <i name="atom">     12.45896517 </i>
    <i name="e_fr_energy">     -2.28682556 </i>
    <i name="e_wo_entrp">     -2.28651341 </i>
    <i name="e_0_energy">     -2.28666949 </i>
   </energy>
  </scstep>
  <parameters_embedded>
   <separator name="dft+d2" >
    <i type="logical" name="LVDW"> F  </i>
   </separator>
  </parameters_embedded>
  <structure>
   <crystal>
    <varray name="basis" >
     <v>       1.43536055       0.00000000       0.00000000 </v>
     <v>       0.00000000       1.43536055       0.00000000 </v>
     <v>       0.00000000       0.00000000       1.43536055 </v>
    </varray>
    <i name="volume">      2.95721580 </i>
    <varray name="rec_basis" >
     <v>       0.69668907       0.00000000       0.00000000 </v>
     <v>       0.00000000       0.69668907       0.00000000 </v>
     <v>       0.00000000       0.00000000       0.69668907 </v>
    </varray>
   </crystal>
   <varray name="positions" >
    <v>       0.00000000       0.00000000       0.00000000 </v>
   </varray>
  </structure>
  <varray name="forces" >
   <v>       0.00000000       0.00000000       0.00000000 </v>
  </varray>
  <varray name="stress" >
   <v>      -5.37139002      -0.00000000      -0.00000000 </v>
   <v>      -0.00000000      -5.37139002       0.00000000 </v>
   <v>      -0.00000000      -0.00000000      -5.37139002 </v>
  </varray>
  <energy>
   <i name="e_fr_energy">     -2.28682556 </i>
   <i name="e_wo_entrp">     -2.28666949 </i>
   <i name="e_0_energy">     -0.00031215 </i>
  </energy>
  <time name="totalsc">    1.52    3.05</time>
  <eigenvalues>
   <array>
    <dimension dim="1">band</dimension>
    <dimension dim="2">kpoint</dimension>
    <dimension dim="3">spin</dimension>
    <field>eigene</field>
    <field>occ</field>
    <set>
     <set comment="spin 1">
      <set comment="kpoint 1">
       <r>  -13.6032    1.0000 </r>
       <r>   50.1446    0.0000 </r>
       <r>   61.6066    0.0000 </r>
       <r>   61.6066    0.0000 </r>
       <r>   63.5882    0.0000 </r>
       <r>  123.2038    0.0000 </r>
       <r>  134.2568    0.0000 </r>
       <r>  136.0324    0.0000 </r>
      </set>
      <set comment="kpoint 2">
       <r>  -13.4270    1.0000 </r>
       <r>   48.7018    0.0000 </r>
       <r>   57.9537    0.0000 </r>
       <r>   61.7877    0.0000 </r>
       <r>  124.8199    0.0000 </r>
       <r>  126.6908    0.0000 </r>
       <r>  130.3611    0.0000 </r>
       <r>  132.6900    0.0000 </r>
      </set>
      <set comment="kpoint 3">
       <r>  -12.8991    1.0000 </r>
       <r>   44.4227    0.0000 </r>
       <r>   56.4604    0.0000 </r>
       <r>   62.3306    0.0000 </r>
       <r>   76.4742    0.0000 </r>
       <r>  123.4126    0.0000 </r>
       <r>  125.9134    0.0000 </r>
       <r>  138.6314    0.0000 </r>
      </set>
      <set comment="kpoint 4">
       <r>  -12.0255    1.0000 </r>
       <r>   38.8989    0.0000 </r>
       <r>   56.6562    0.0000 </r>
       <r>   63.2332    0.0000 </r>
       <r>   85.6339    0.0000 </r>
       <r>  110.5036    0.0000 </r>
       <r>  116.8019    0.0000 </r>
       <r>  198.9814    0.0000 </r>
      </set>
      <set comment="kpoint 5">
       <r>  -10.8043    1.0000 </r>
       <r>   33.3239    0.0000 </r>
       <r>   57.5565    0.0000 </r>
       <r>   64.4964    0.0000 </r>
       <r>   94.9977    0.0000 </r>
       <r>  108.3512    0.0000 </r>
       <r>  120.2414    0.0000 </r>
       <r>  163.8247    0.0000 </r>
      </set>
      <set comment="kpoint 6">
       <r>   -9.2470    1.0000 </r>
       <r>   27.9633    0.0000 </r>
       <r>   58.8865    0.0000 </r>
       <r>   66.1159    0.0000 </r>
       <r>   98.2087    0.0000 </r>
       <r>  103.2697    0.0000 </r>
       <r>  124.8287    0.0000 </r>
       <r>  164.2203    0.0000 </r>
      </set>
      <set comment="kpoint 7">
       <r>   -7.3709    1.0000 </r>
       <r>   22.9298    0.0000 </r>
       <r>   60.5335    0.0000 </r>
       <r>   68.0851    0.0000 </r>
       <r>   93.4914    0.0000 </r>
       <r>  101.0356    0.0000 </r>
       <r>  138.7121    0.0000 </r>
       <r>  175.3363    0.0000 </r>
      </set>
      <set comment="kpoint 8">
       <r>   -5.2212    1.0000 </r>
       <r>   18.2889    0.0000 </r>
       <r>   62.3570    0.0000 </r>
       <r>   70.3764    0.0000 </r>
       <r>   92.3121    0.0000 </r>
       <r>  117.7328    0.0000 </r>
       <r>  141.4233    0.0000 </r>
       <r>  166.2960    0.0000 </r>
      </set>
      <set comment="kpoint 9">
       <r>   -2.8800    1.0000 </r>
       <r>   14.1733    0.0000 </r>
       <r>   64.2605    0.0000 </r>
       <r>   72.9699    0.0000 </r>
       <r>   88.8710    0.0000 </r>
       <r>  123.7050    0.0000 </r>
       <r>  144.5575    0.0000 </r>
       <r>  208.6620    0.0000 </r>
      </set>
      <set comment="kpoint 10">
       <r>   -0.6687    1.0000 </r>
       <r>   10.8731    0.0000 </r>
       <r>   65.8266    0.0000 </r>
       <r>   75.6742    0.0000 </r>
       <r>  149.0605    0.0000 </r>
       <r>  147.7062    0.0000 </r>
       <r>  150.7601    0.0000 </r>
       <r>  153.6441    0.0000 </r>
      </set>
      <set comment="kpoint 11">
       <r>    0.4316    1.0000 </r>
       <r>    9.4165    0.0000 </r>
       <r>   66.4923    0.0000 </r>
       <r>   77.3387    0.0000 </r>
       <r>  151.8591    0.0000 </r>
       <r>  151.2269    0.0000 </r>
       <r>  155.0576    0.0000 </r>
       <r>  220.7991    0.0000 </r>
      </set>
      <set comment="kpoint 12">
       <r>  -13.2509    1.0000 </r>
       <r>   47.8296    0.0000 </r>
       <r>   55.5977    0.0000 </r>
       <r>   60.4256    0.0000 </r>
       <r>   68.1959    0.0000 </r>
       <r>  121.0403    0.0000 </r>
       <r>  135.2235    0.0000 </r>
       <r>  135.0936    0.0000 </r>
      </set>
      <set comment="kpoint 13">
       <r>  -12.7230    1.0000 </r>
       <r>   44.3134    0.0000 </r>
       <r>   53.6241    0.0000 </r>
       <r>   60.7235    0.0000 </r>
       <r>   72.8600    0.0000 </r>
       <r>  116.5478    0.0000 </r>
       <r>  121.5002    0.0000 </r>
       <r>  138.8502    0.0000 </r>
      </set>
      <set comment="kpoint 14">
       <r>  -11.8480    1.0000 </r>
       <r>   39.0087    0.0000 </r>
       <r>   53.6903    0.0000 </r>
       <r>   61.5602    0.0000 </r>
       <r>   69.8091    0.0000 </r>
       <r>   93.8153    0.0000 </r>
       <r>  117.0634    0.0000 </r>
       <r>  131.1193    0.0000 </r>
      </set>
      <set comment="kpoint 15">
       <r>  -10.6301    1.0000 </r>
       <r>   33.4675    0.0000 </r>
       <r>   54.5873    0.0000 </r>
       <r>   62.7738    0.0000 </r>
       <r>   96.9254    0.0000 </r>
       <r>  112.4782    0.0000 </r>
       <r>  126.1643    0.0000 </r>
       <r>  168.4813    0.0000 </r>
      </set>
      <set comment="kpoint 16">
       <r>   -9.0732    1.0000 </r>
       <r>   28.1240    0.0000 </r>
       <r>   55.9657    0.0000 </r>
       <r>   64.3401    0.0000 </r>
       <r>  101.9885    0.0000 </r>
       <r>  112.9512    0.0000 </r>
       <r>  146.4409    0.0000 </r>
       <r>  162.4687    0.0000 </r>
      </set>
      <set comment="kpoint 17">
       <r>   -7.1977    1.0000 </r>
       <r>   23.0980    0.0000 </r>
       <r>   57.6939    0.0000 </r>
       <r>   66.2379    0.0000 </r>
       <r>   98.0095    0.0000 </r>
       <r>  129.0870    0.0000 </r>
       <r>  148.4648    0.0000 </r>
       <r>  176.2447    0.0000 </r>
      </set>
      <set comment="kpoint 18">
       <r>   -5.0451    1.0000 </r>
       <r>   18.4658    0.0000 </r>
       <r>   59.6705    0.0000 </r>
       <r>   68.4237    0.0000 </r>
       <r>   98.3072    0.0000 </r>
       <r>  140.8010    0.0000 </r>
       <r>  138.0674    0.0000 </r>
       <r>  159.4530    0.0000 </r>
      </set>
      <set comment="kpoint 19">
       <r>   -2.7046    1.0000 </r>
       <r>   14.3525    0.0000 </r>
       <r>   61.7665    0.0000 </r>
       <r>   70.8450    0.0000 </r>
       <r>   81.9007    0.0000 </r>
       <r>  149.6492    0.0000 </r>
       <r>  145.7699    0.0000 </r>
       <r>  156.9870    0.0000 </r>
      </set>
      <set comment="kpoint 20">
       <r>   -0.4895    1.0000 </r>
       <r>   11.0596    0.0000 </r>
       <r>   63.5996    0.0000 </r>
       <r>   73.2870    0.0000 </r>
       <r>   90.9680    0.0000 </r>
       <r>  149.0327    0.0000 </r>
       <r>  154.2767    0.0000 </r>
       <r>  220.3913    0.0000 </r>
      </set>
      <set comment="kpoint 21">
       <r>    0.6089    1.0000 </r>
       <r>    9.5985    0.0000 </r>
       <r>   64.4158    0.0000 </r>
       <r>   75.3596    0.0000 </r>
       <r>   80.2186    0.0000 </r>
       <r>  143.4525    0.0000 </r>
       <r>  148.8041    0.0000 </r>
       <r>  153.4138    0.0000 </r>
      </set>
      <set comment="kpoint 22">
       <r>  -12.1984    1.0000 </r>
       <r>   43.1676    0.0000 </r>
       <r>   49.4213    0.0000 </r>
       <r>   60.8470    0.0000 </r>
       <r>   75.5254    0.0000 </r>
       <r>  116.8521    0.0000 </r>
       <r>  128.6297    0.0000 </r>
       <r>  135.5932    0.0000 </r>
      </set>
      <set comment="kpoint 23">
       <r>  -11.3224    1.0000 </r>
       <r>   39.1603    0.0000 </r>
       <r>   48.2572    0.0000 </r>
       <r>   61.6231    0.0000 </r>
       <r>  101.3070    0.0000 </r>
       <r>  109.9317    0.0000 </r>
       <r>  125.9766    0.0000 </r>
       <r>  154.5233    0.0000 </r>
      </set>
      <set comment="kpoint 24">
       <r>  -10.1036    1.0000 </r>
       <r>   33.8823    0.0000 </r>
       <r>   48.9468    0.0000 </r>
       <r>   62.7933    0.0000 </r>
       <r>   99.5098    0.0000 </r>
       <r>  106.8298    0.0000 </r>
       <r>  134.7640    0.0000 </r>
       <r>  162.2990    0.0000 </r>
      </set>
      <set comment="kpoint 25">
       <r>   -8.5449    1.0000 </r>
       <r>   28.6090    0.0000 </r>
       <r>   50.3049    0.0000 </r>
       <r>   64.3138    0.0000 </r>
       <r>   92.8076    0.0000 </r>
       <r>  101.3799    0.0000 </r>
       <r>  120.3726    0.0000 </r>
       <r>  166.6020    0.0000 </r>
      </set>
      <set comment="kpoint 26">
       <r>   -6.6706    1.0000 </r>
       <r>   23.6089    0.0000 </r>
       <r>   52.0760    0.0000 </r>
       <r>   66.1296    0.0000 </r>
       <r>   92.9151    0.0000 </r>
       <r>  104.6162    0.0000 </r>
       <r>  111.3000    0.0000 </r>
       <r>  158.9520    0.0000 </r>
      </set>
      <set comment="kpoint 27">
       <r>   -4.5199    1.0000 </r>
       <r>   18.9894    0.0000 </r>
       <r>   54.1540    0.0000 </r>
       <r>   68.1377    0.0000 </r>
       <r>   83.7583    0.0000 </r>
       <r>   93.6908    0.0000 </r>
       <r>  147.3459    0.0000 </r>
       <r>  180.2129    0.0000 </r>
      </set>
      <set comment="kpoint 28">
       <r>   -2.1864    1.0000 </r>
       <r>   14.8762    0.0000 </r>
       <r>   56.4132    0.0000 </r>
       <r>   69.9694    0.0000 </r>
       <r>  100.9622    0.0000 </r>
       <r>  133.2102    0.0000 </r>
       <r>  155.0649    0.0000 </r>
       <r>  191.0160    0.0000 </r>
      </set>
      <set comment="kpoint 29">
       <r>    0.0266    1.0000 </r>
       <r>   11.5990    0.0000 </r>
       <r>   58.5372    0.0000 </r>
       <r>   69.6842    0.0000 </r>
       <r>  121.2792    0.0000 </r>
       <r>  128.5892    0.0000 </r>
       <r>  138.3017    0.0000 </r>
       <r>  161.5097    0.0000 </r>
      </set>
      <set comment="kpoint 30">
       <r>    1.1337    1.0000 </r>
       <r>   10.1477    0.0000 </r>
       <r>   59.5733    0.0000 </r>
       <r>   68.6609    0.0000 </r>
       <r>   83.4325    0.0000 </r>
       <r>  136.7670    0.0000 </r>
       <r>  145.0864    0.0000 </r>
       <r>  222.3283    0.0000 </r>
      </set>
      <set comment="kpoint 31">
       <r>  -10.4473    1.0000 </r>
       <r>   38.3199    0.0000 </r>
       <r>   43.9435    0.0000 </r>
       <r>   62.3713    0.0000 </r>
       <r>   87.1456    0.0000 </r>
       <r>  119.5397    0.0000 </r>
       <r>  120.1302    0.0000 </r>
       <r>  164.5046    0.0000 </r>
      </set>
      <set comment="kpoint 32">
       <r>   -9.2246    1.0000 </r>
       <r>   34.4157    0.0000 </r>
       <r>   43.3099    0.0000 </r>
       <r>   63.5175    0.0000 </r>
       <r>   86.2531    0.0000 </r>
       <r>  120.1114    0.0000 </r>
       <r>  150.1455    0.0000 </r>
       <r>  161.4354    0.0000 </r>
      </set>
      <set comment="kpoint 33">
       <r>   -7.6718    1.0000 </r>
       <r>   29.3759    0.0000 </r>
       <r>   44.4398    0.0000 </r>
       <r>   64.9835    0.0000 </r>
       <r>  102.5053    0.0000 </r>
       <r>  105.1068    0.0000 </r>
       <r>  121.4214    0.0000 </r>
       <r>  169.4350    0.0000 </r>
      </set>
      <set comment="kpoint 34">
       <r>   -5.7999    1.0000 </r>
       <r>   24.4454    0.0000 </r>
       <r>   46.1693    0.0000 </r>
       <r>   66.6758    0.0000 </r>
       <r>   99.8835    0.0000 </r>
       <r>  117.8986    0.0000 </r>
       <r>  143.7302    0.0000 </r>
       <r>  198.1733    0.0000 </r>
      </set>
      <set comment="kpoint 35">
       <r>   -3.6557    1.0000 </r>
       <r>   19.8455    0.0000 </r>
       <r>   48.2615    0.0000 </r>
       <r>   68.0702    0.0000 </r>
       <r>   93.0344    0.0000 </r>
       <r>  118.6872    0.0000 </r>
       <r>  115.7705    0.0000 </r>
       <r>  160.2523    0.0000 </r>
      </set>
      <set comment="kpoint 36">
       <r>   -1.3257    1.0000 </r>
       <r>   15.7588    0.0000 </r>
       <r>   50.5901    0.0000 </r>
       <r>   66.6597    0.0000 </r>
       <r>   94.0835    0.0000 </r>
       <r>  122.5554    0.0000 </r>
       <r>  134.3751    0.0000 </r>
       <r>  182.4187    0.0000 </r>
      </set>
      <set comment="kpoint 37">
       <r>    0.8771    1.0000 </r>
       <r>   12.4970    0.0000 </r>
       <r>   52.8416    0.0000 </r>
       <r>   63.7300    0.0000 </r>
       <r>   85.0654    0.0000 </r>
       <r>  115.8452    0.0000 </r>
       <r>  126.2355    0.0000 </r>
       <r>  140.4282    0.0000 </r>
      </set>
      <set comment="kpoint 38">
       <r>    1.9749    1.0000 </r>
       <r>   11.0559    0.0000 </r>
       <r>   53.9904    0.0000 </r>
       <r>   62.2906    0.0000 </r>
       <r>   76.0424    0.0000 </r>
       <r>  124.8119    0.0000 </r>
       <r>  130.2356    0.0000 </r>
       <r>  151.9395    0.0000 </r>
      </set>
      <set comment="kpoint 39">
       <r>   -8.0101    1.0000 </r>
       <r>   33.9448    0.0000 </r>
       <r>   39.2021    0.0000 </r>
       <r>   64.6154    0.0000 </r>
       <r>  101.6664    0.0000 </r>
       <r>  109.1237    0.0000 </r>
       <r>  149.4365    0.0000 </r>
       <r>  205.2538    0.0000 </r>
      </set>
      <set comment="kpoint 40">
       <r>   -6.4580    1.0000 </r>
       <r>   30.2725    0.0000 </r>
       <r>   38.9872    0.0000 </r>
       <r>   65.9653    0.0000 </r>
       <r>  105.7938    0.0000 </r>
       <r>  104.6961    0.0000 </r>
       <r>  134.1861    0.0000 </r>
       <r>  150.0516    0.0000 </r>
      </set>
      <set comment="kpoint 41">
       <r>   -4.5917    1.0000 </r>
       <r>   25.5684    0.0000 </r>
       <r>   40.4967    0.0000 </r>
       <r>   67.0196    0.0000 </r>
       <r>  103.0841    0.0000 </r>
       <r>  106.6892    0.0000 </r>
       <r>  112.6472    0.0000 </r>
       <r>  175.0335    0.0000 </r>
      </set>
      <set comment="kpoint 42">
       <r>   -2.4497    1.0000 </r>
       <r>   21.0431    0.0000 </r>
       <r>   42.5491    0.0000 </r>
       <r>   64.9555    0.0000 </r>
       <r>   99.6076    0.0000 </r>
       <r>  119.9713    0.0000 </r>
       <r>  124.3942    0.0000 </r>
       <r>  196.8191    0.0000 </r>
      </set>
      <set comment="kpoint 43">
       <r>   -0.1337    1.0000 </r>
       <r>   16.9863    0.0000 </r>
       <r>   44.8891    0.0000 </r>
       <r>   61.1540    0.0000 </r>
       <r>   90.1850    0.0000 </r>
       <r>  111.2948    0.0000 </r>
       <r>  125.4078    0.0000 </r>
       <r>  191.1980    0.0000 </r>
      </set>
      <set comment="kpoint 44">
       <r>    2.0628    0.9992 </r>
       <r>   13.7513    0.0000 </r>
       <r>   47.2026    0.0000 </r>
       <r>   57.8371    0.0000 </r>
       <r>   83.9706    0.0000 </r>
       <r>  112.0496    0.0000 </r>
       <r>  121.2853    0.0000 </r>
       <r>  199.6653    0.0000 </r>
      </set>
      <set comment="kpoint 45">
       <r>    3.1417    0.0000 </r>
       <r>   12.3264    0.0000 </r>
       <r>   48.4448    0.0000 </r>
       <r>   56.2801    0.0000 </r>
       <r>  117.2362    0.0000 </r>
       <r>  119.6797    0.0000 </r>
       <r>  125.3613    0.0000 </r>
       <r>  177.7704    0.0000 </r>
      </set>
      <set comment="kpoint 46">
       <r>   -4.9096    1.0000 </r>
       <r>   30.1955    0.0000 </r>
       <r>   35.1888    0.0000 </r>
       <r>   66.6673    0.0000 </r>
       <r>  103.1285    0.0000 </r>
       <r>  107.2285    0.0000 </r>
       <r>  174.4678    0.0000 </r>
       <r>  211.2921    0.0000 </r>
      </set>
      <set comment="kpoint 47">
       <r>   -3.0467    1.0000 </r>
       <r>   26.8406    0.0000 </r>
       <r>   35.3755    0.0000 </r>
       <r>   64.1708    0.0000 </r>
       <r>  106.5214    0.0000 </r>
       <r>  108.9257    0.0000 </r>
       <r>  134.9600    0.0000 </r>
       <r>  164.4676    0.0000 </r>
      </set>
      <set comment="kpoint 48">
       <r>   -0.9159    1.0000 </r>
       <r>   22.5304    0.0000 </r>
       <r>   37.2264    0.0000 </r>
       <r>   59.8217    0.0000 </r>
       <r>  102.9752    0.0000 </r>
       <r>  104.0379    0.0000 </r>
       <r>  174.2678    0.0000 </r>
       <r>  197.9063    0.0000 </r>
      </set>
      <set comment="kpoint 49">
       <r>    1.3922    1.0000 </r>
       <r>   18.5448    0.0000 </r>
       <r>   39.5216    0.0000 </r>
       <r>   55.6786    0.0000 </r>
       <r>  107.4594    0.0000 </r>
       <r>  115.1417    0.0000 </r>
       <r>  128.2448    0.0000 </r>
       <r>  189.8365    0.0000 </r>
      </set>
      <set comment="kpoint 50">
       <r>    3.5527    0.0000 </r>
       <r>   15.3561    0.0000 </r>
       <r>   41.8578    0.0000 </r>
       <r>   52.2497    0.0000 </r>
       <r>  107.8157    0.0000 </r>
       <r>  116.2843    0.0000 </r>
       <r>  123.7999    0.0000 </r>
       <r>  199.5704    0.0000 </r>
      </set>
      <set comment="kpoint 51">
       <r>    4.6053    0.0000 </r>
       <r>   13.9580    0.0000 </r>
       <r>   43.1105    0.0000 </r>
       <r>   50.6326    0.0000 </r>
       <r>  119.8920    0.0000 </r>
       <r>  120.7944    0.0000 </r>
       <r>  177.0241    0.0000 </r>
       <r>  204.6633    0.0000 </r>
      </set>
      <set comment="kpoint 52">
       <r>   -1.1982    1.0000 </r>
       <r>   27.1361    0.0000 </r>
       <r>   31.9025    0.0000 </r>
       <r>   59.3787    0.0000 </r>
       <r>  104.3694    0.0000 </r>
       <r>  109.1335    0.0000 </r>
       <r>  137.2405    0.0000 </r>
       <r>  186.3181    0.0000 </r>
      </set>
      <set comment="kpoint 53">
       <r>    0.9314    1.0000 </r>
       <r>   24.1615    0.0000 </r>
       <r>   32.4591    0.0000 </r>
       <r>   54.7451    0.0000 </r>
       <r>   99.6588    0.0000 </r>
       <r>  106.5900    0.0000 </r>
       <r>  136.7888    0.0000 </r>
       <r>  199.1744    0.0000 </r>
      </set>
      <set comment="kpoint 54">
       <r>    3.2090    0.0000 </r>
       <r>   20.4045    0.0000 </r>
       <r>   34.5859    0.0000 </r>
       <r>   50.5291    0.0000 </r>
       <r>   94.2255    0.0000 </r>
       <r>  121.0716    0.0000 </r>
       <r>  122.9389    0.0000 </r>
       <r>  187.9673    0.0000 </r>
      </set>
      <set comment="kpoint 55">
       <r>    5.3326    0.0000 </r>
       <r>   17.3046    0.0000 </r>
       <r>   36.9163    0.0000 </r>
       <r>   47.0316    0.0000 </r>
       <r>   78.6516    0.0000 </r>
       <r>  124.1161    0.0000 </r>
       <r>  135.3710    0.0000 </r>
       <r>  197.5652    0.0000 </r>
      </set>
      <set comment="kpoint 56">
       <r>    6.3553    0.0000 </r>
       <r>   15.9483    0.0000 </r>
       <r>   38.2077    0.0000 </r>
       <r>   45.3581    0.0000 </r>
       <r>   88.4849    0.0000 </r>
       <r>  115.3266    0.0000 </r>
       <r>  117.1129    0.0000 </r>
       <r>  180.6981    0.0000 </r>
      </set>
      <set comment="kpoint 57">
       <r>    3.0344    0.0000 </r>
       <r>   24.9115    0.0000 </r>
       <r>   29.3479    0.0000 </r>
       <r>   50.0274    0.0000 </r>
       <r>   97.8810    0.0000 </r>
       <r>  113.2244    0.0000 </r>
       <r>  126.3198    0.0000 </r>
       <r>  130.3462    0.0000 </r>
      </set>
      <set comment="kpoint 58">
       <r>    5.2789    0.0000 </r>
       <r>   22.4412    0.0000 </r>
       <r>   30.2469    0.0000 </r>
       <r>   45.7615    0.0000 </r>
       <r>  101.4261    0.0000 </r>
       <r>  134.0298    0.0000 </r>
       <r>  147.7622    0.0000 </r>
       <r>  198.0030    0.0000 </r>
      </set>
      <set comment="kpoint 59">
       <r>    7.3394    0.0000 </r>
       <r>   19.5711    0.0000 </r>
       <r>   32.4539    0.0000 </r>
       <r>   42.1996    0.0000 </r>
       <r>  106.1599    0.0000 </r>
       <r>  111.1688    0.0000 </r>
       <r>  111.6904    0.0000 </r>
       <r>  174.5108    0.0000 </r>
      </set>
      <set comment="kpoint 60">
       <r>    8.3168    0.0000 </r>
       <r>   18.2910    0.0000 </r>
       <r>   33.7771    0.0000 </r>
       <r>   40.4607    0.0000 </r>
       <r>  104.8277    0.0000 </r>
       <r>  109.2822    0.0000 </r>
       <r>  135.4942    0.0000 </r>
       <r>  211.0222    0.0000 </r>
      </set>
      <set comment="kpoint 61">
       <r>    7.4723    0.0000 </r>
       <r>   23.7105    0.0000 </r>
       <r>   27.5232    0.0000 </r>
       <r>   41.4448    0.0000 </r>
       <r>  106.5468    0.0000 </r>
       <r>  105.8732    0.0000 </r>
       <r>  140.2338    0.0000 </r>
       <r>  183.4158    0.0000 </r>
      </set>
      <set comment="kpoint 62">
       <r>    9.4438    0.0000 </r>
       <r>   22.0715    0.0000 </r>
       <r>   28.6657    0.0000 </r>
       <r>   37.8000    0.0000 </r>
       <r>   84.2593    0.0000 </r>
       <r>  106.4039    0.0000 </r>
       <r>  107.0721    0.0000 </r>
       <r>  151.3085    0.0000 </r>
      </set>
      <set comment="kpoint 63">
       <r>   10.3439    0.0000 </r>
       <r>   20.9680    0.0000 </r>
       <r>   29.9796    0.0000 </r>
       <r>   35.9588    0.0000 </r>
       <r>  102.5490    0.0000 </r>
       <r>  145.5650    0.0000 </r>
       <r>  163.0500    0.0000 </r>
       <r>  169.6978    0.0000 </r>
      </set>
      <set comment="kpoint 64">
       <r>   11.2895    0.0000 </r>
       <r>   24.1172    0.0000 </r>
       <r>   26.4284    0.0000 </r>
       <r>   33.9994    0.0000 </r>
       <r>   84.8288    0.0000 </r>
       <r>  100.9095    0.0000 </r>
       <r>  154.1309    0.0000 </r>
       <r>  161.4008    0.0000 </r>
      </set>
      <set comment="kpoint 65">
       <r>   12.1085    0.0000 </r>
       <r>   23.8968    0.0000 </r>
       <r>   27.1718    0.0000 </r>
       <r>   31.9358    0.0000 </r>
       <r>   99.6357    0.0000 </r>
       <r>  100.6023    0.0000 </r>
       <r>  163.6973    0.0000 </r>
       <r>  167.6357    0.0000 </r>
      </set>
      <set comment="kpoint 66">
       <r>   12.8808    0.0000 </r>
       <r>   26.0634    0.0000 </r>
       <r>   26.0634    0.0000 </r>
       <r>   29.4099    0.0000 </r>
       <r>   99.3799    0.0000 </r>
       <r>  100.7435    0.0000 </r>
       <r>  167.5685    0.0000 </r>
       <r>  165.4308    0.0000 </r>
      </set>
      <set comment="kpoint 67">
       <r>  -13.0747    1.0000 </r>
       <r>   47.1843    0.0000 </r>
       <r>   55.7791    0.0000 </r>
       <r>   55.7791    0.0000 </r>
       <r>   65.6366    0.0000 </r>
       <r>  118.0437    0.0000 </r>
       <r>  133.8140    0.0000 </r>
       <r>  134.3954    0.0000 </r>
      </set>
      <set comment="kpoint 68">
       <r>  -12.5469    1.0000 </r>
       <r>   44.2019    0.0000 </r>
       <r>   52.9490    0.0000 </r>
       <r>   56.3230    0.0000 </r>
       <r>   66.9792    0.0000 </r>
       <r>  112.3921    0.0000 </r>
       <r>  121.6943    0.0000 </r>
       <r>  132.2560    0.0000 </r>
      </set>
      <set comment="kpoint 69">
       <r>  -11.6705    1.0000 </r>
       <r>   39.1162    0.0000 </r>
       <r>   52.7277    0.0000 </r>
       <r>   57.2282    0.0000 </r>
       <r>   67.9806    0.0000 </r>
       <r>  115.8403    0.0000 </r>
       <r>  127.3541    0.0000 </r>
       <r>  153.7756    0.0000 </r>
      </set>
      <set comment="kpoint 70">
       <r>  -10.4558    1.0000 </r>
       <r>   33.6105    0.0000 </r>
       <r>   53.5339    0.0000 </r>
       <r>   58.4876    0.0000 </r>
       <r>  101.9496    0.0000 </r>
       <r>  114.7803    0.0000 </r>
       <r>  128.3394    0.0000 </r>
       <r>  155.1773    0.0000 </r>
      </set>
      <set comment="kpoint 71">
       <r>   -8.8995    1.0000 </r>
       <r>   28.2844    0.0000 </r>
       <r>   54.8740    0.0000 </r>
       <r>   60.1124    0.0000 </r>
       <r>  104.1301    0.0000 </r>
       <r>  107.6569    0.0000 </r>
       <r>  125.4348    0.0000 </r>
       <r>  157.2386    0.0000 </r>
      </set>
      <set comment="kpoint 72">
       <r>   -7.0246    1.0000 </r>
       <r>   23.2660    0.0000 </r>
       <r>   56.5788    0.0000 </r>
       <r>   62.0908    0.0000 </r>
       <r>   97.4801    0.0000 </r>
       <r>  118.9962    0.0000 </r>
       <r>  148.5857    0.0000 </r>
       <r>  168.5885    0.0000 </r>
      </set>
      <set comment="kpoint 73">
       <r>   -4.8690    1.0000 </r>
       <r>   18.6426    0.0000 </r>
       <r>   58.5486    0.0000 </r>
       <r>   64.4119    0.0000 </r>
       <r>   81.6942    0.0000 </r>
       <r>  106.3051    0.0000 </r>
       <r>  114.0872    0.0000 </r>
       <r>  147.7260    0.0000 </r>
      </set>
      <set comment="kpoint 74">
       <r>   -2.5310    1.0000 </r>
       <r>   14.5274    0.0000 </r>
       <r>   60.6243    0.0000 </r>
       <r>   67.0442    0.0000 </r>
       <r>   94.7965    0.0000 </r>
       <r>  151.9599    0.0000 </r>
       <r>  149.5520    0.0000 </r>
       <r>  207.0851    0.0000 </r>
      </set>
      <set comment="kpoint 75">
       <r>   -0.3178    1.0000 </r>
       <r>   11.2377    0.0000 </r>
       <r>   62.4515    0.0000 </r>
       <r>   69.8498    0.0000 </r>
       <r>   89.8544    0.0000 </r>
       <r>  143.2084    0.0000 </r>
       <r>  144.7853    0.0000 </r>
       <r>  172.9054    0.0000 </r>
      </set>
      <set comment="kpoint 76">
       <r>    0.7947    1.0000 </r>
       <r>    9.7825    0.0000 </r>
       <r>   63.2857    0.0000 </r>
       <r>   71.7071    0.0000 </r>
       <r>   85.5479    0.0000 </r>
       <r>  148.5555    0.0000 </r>
       <r>  148.3797    0.0000 </r>
       <r>  218.6961    0.0000 </r>
      </set>
      <set comment="kpoint 77">
       <r>  -12.0223    1.0000 </r>
       <r>   43.1070    0.0000 </r>
       <r>   49.6027    0.0000 </r>
       <r>   55.4157    0.0000 </r>
       <r>   69.4610    0.0000 </r>
       <r>  109.0617    0.0000 </r>
       <r>  134.3126    0.0000 </r>
       <r>  147.6111    0.0000 </r>
      </set>
      <set comment="kpoint 78">
       <r>  -11.1451    1.0000 </r>
       <r>   39.2601    0.0000 </r>
       <r>   48.3324    0.0000 </r>
       <r>   56.1241    0.0000 </r>
       <r>   69.8636    0.0000 </r>
       <r>  114.5297    0.0000 </r>
       <r>  136.4253    0.0000 </r>
       <r>  136.0042    0.0000 </r>
      </set>
      <set comment="kpoint 79">
       <r>   -9.9235    1.0000 </r>
       <r>   34.0407    0.0000 </r>
       <r>   48.9601    0.0000 </r>
       <r>   57.3182    0.0000 </r>
       <r>   80.6414    0.0000 </r>
       <r>   95.4241    0.0000 </r>
       <r>  152.0325    0.0000 </r>
       <r>  151.5154    0.0000 </r>
      </set>
      <set comment="kpoint 80">
       <r>   -8.3712    1.0000 </r>
       <r>   28.7688    0.0000 </r>
       <r>   50.2858    0.0000 </r>
       <r>   58.8787    0.0000 </r>
       <r>   94.7503    0.0000 </r>
       <r>  114.5149    0.0000 </r>
       <r>  130.2764    0.0000 </r>
       <r>  163.7101    0.0000 </r>
      </set>
      <set comment="kpoint 81">
       <r>   -6.4976    1.0000 </r>
       <r>   23.7766    0.0000 </r>
       <r>   52.0344    0.0000 </r>
       <r>   60.7973    0.0000 </r>
       <r>   91.1698    0.0000 </r>
       <r>  109.0731    0.0000 </r>
       <r>  145.1700    0.0000 </r>
       <r>  182.7830    0.0000 </r>
      </set>
      <set comment="kpoint 82">
       <r>   -4.3453    1.0000 </r>
       <r>   19.1613    0.0000 </r>
       <r>   54.0888    0.0000 </r>
       <r>   63.0310    0.0000 </r>
       <r>   83.3201    0.0000 </r>
       <r>  102.7674    0.0000 </r>
       <r>  137.6959    0.0000 </r>
       <r>  168.6234    0.0000 </r>
      </set>
      <set comment="kpoint 83">
       <r>   -2.0094    1.0000 </r>
       <r>   15.0591    0.0000 </r>
       <r>   56.3198    0.0000 </r>
       <r>   65.5080    0.0000 </r>
       <r>  100.4485    0.0000 </r>
       <r>  115.6156    0.0000 </r>
       <r>  140.7157    0.0000 </r>
       <r>  147.8844    0.0000 </r>
      </set>
      <set comment="kpoint 84">
       <r>    0.2008    1.0000 </r>
       <r>   11.7800    0.0000 </r>
       <r>   58.3829    0.0000 </r>
       <r>   67.9372    0.0000 </r>
       <r>   96.3440    0.0000 </r>
       <r>   98.2323    0.0000 </r>
       <r>  126.3865    0.0000 </r>
       <r>  140.8544    0.0000 </r>
      </set>
      <set comment="kpoint 85">
       <r>    1.3019    1.0000 </r>
       <r>   10.3276    0.0000 </r>
       <r>   59.3704    0.0000 </r>
       <r>   68.8270    0.0000 </r>
       <r>   90.3279    0.0000 </r>
       <r>  114.2060    0.0000 </r>
       <r>  132.7606    0.0000 </r>
       <r>  155.3238    0.0000 </r>
      </set>
      <set comment="kpoint 86">
       <r>  -10.2685    1.0000 </r>
       <r>   38.4281    0.0000 </r>
       <r>   44.1311    0.0000 </r>
       <r>   56.7370    0.0000 </r>
       <r>   90.4574    0.0000 </r>
       <r>  125.5899    0.0000 </r>
       <r>  147.8299    0.0000 </r>
       <r>  181.9491    0.0000 </r>
      </set>
      <set comment="kpoint 87">
       <r>   -9.0508    1.0000 </r>
       <r>   34.5520    0.0000 </r>
       <r>   43.4511    0.0000 </r>
       <r>   57.8847    0.0000 </r>
       <r>   90.7549    0.0000 </r>
       <r>  108.6871    0.0000 </r>
       <r>  107.9538    0.0000 </r>
       <r>  163.2256    0.0000 </r>
      </set>
      <set comment="kpoint 88">
       <r>   -7.5000    1.0000 </r>
       <r>   29.5322    0.0000 </r>
       <r>   44.5593    0.0000 </r>
       <r>   59.4055    0.0000 </r>
       <r>   99.9769    0.0000 </r>
       <r>  113.7524    0.0000 </r>
       <r>  125.7118    0.0000 </r>
       <r>  175.3005    0.0000 </r>
      </set>
      <set comment="kpoint 89">
       <r>   -5.6288    1.0000 </r>
       <r>   24.6113    0.0000 </r>
       <r>   46.2770    0.0000 </r>
       <r>   61.2703    0.0000 </r>
       <r>  110.5370    0.0000 </r>
       <r>  121.1967    0.0000 </r>
       <r>  138.0274    0.0000 </r>
       <r>  174.1801    0.0000 </r>
      </set>
      <set comment="kpoint 90">
       <r>   -3.4804    1.0000 </r>
       <r>   20.0257    0.0000 </r>
       <r>   48.3629    0.0000 </r>
       <r>   63.3831    0.0000 </r>
       <r>   91.6275    0.0000 </r>
       <r>   94.5758    0.0000 </r>
       <r>  113.1483    0.0000 </r>
       <r>  146.8891    0.0000 </r>
      </set>
      <set comment="kpoint 91">
       <r>   -1.1506    1.0000 </r>
       <r>   15.9377    0.0000 </r>
       <r>   50.6899    0.0000 </r>
       <r>   65.2279    0.0000 </r>
       <r>   98.8477    0.0000 </r>
       <r>  111.9107    0.0000 </r>
       <r>  128.7210    0.0000 </r>
       <r>  168.8480    0.0000 </r>
      </set>
      <set comment="kpoint 92">
       <r>    1.0560    1.0000 </r>
       <r>   12.6780    0.0000 </r>
       <r>   52.9203    0.0000 </r>
       <r>   63.8087    0.0000 </r>
       <r>   92.5102    0.0000 </r>
       <r>  112.8456    0.0000 </r>
       <r>  124.7860    0.0000 </r>
       <r>  177.8817    0.0000 </r>
      </set>
      <set comment="kpoint 93">
       <r>    2.1520    0.9433 </r>
       <r>   11.2379    0.0000 </r>
       <r>   54.0510    0.0000 </r>
       <r>   62.4687    0.0000 </r>
       <r>   93.1806    0.0000 </r>
       <r>  109.0081    0.0000 </r>
       <r>  126.2685    0.0000 </r>
       <r>  150.5562    0.0000 </r>
      </set>
      <set comment="kpoint 94">
       <r>   -7.8347    1.0000 </r>
       <r>   34.0820    0.0000 </r>
       <r>   39.3834    0.0000 </r>
       <r>   59.0051    0.0000 </r>
       <r>   95.7659    0.0000 </r>
       <r>  123.4788    0.0000 </r>
       <r>  150.4874    0.0000 </r>
       <r>  160.7978    0.0000 </r>
      </set>
      <set comment="kpoint 95">
       <r>   -6.2847    1.0000 </r>
       <r>   30.4271    0.0000 </r>
       <r>   39.1548    0.0000 </r>
       <r>   60.4895    0.0000 </r>
       <r>   98.0869    0.0000 </r>
       <r>  108.9297    0.0000 </r>
       <r>  116.7188    0.0000 </r>
       <r>  176.8709    0.0000 </r>
      </set>
      <set comment="kpoint 96">
       <r>   -4.4203    1.0000 </r>
       <r>   25.7284    0.0000 </r>
       <r>   40.6539    0.0000 </r>
       <r>   62.2536    0.0000 </r>
       <r>   98.0391    0.0000 </r>
       <r>  116.3143    0.0000 </r>
       <r>  117.3991    0.0000 </r>
       <r>  167.3858    0.0000 </r>
      </set>
      <set comment="kpoint 97">
       <r>   -2.2747    1.0000 </r>
       <r>   21.2201    0.0000 </r>
       <r>   42.7145    0.0000 </r>
       <r>   63.6515    0.0000 </r>
       <r>  109.5718    0.0000 </r>
       <r>  118.9079    0.0000 </r>
       <r>  169.3329    0.0000 </r>
       <r>  189.3499    0.0000 </r>
      </set>
      <set comment="kpoint 98">
       <r>    0.0483    1.0000 </r>
       <r>   17.1655    0.0000 </r>
       <r>   45.0500    0.0000 </r>
       <r>   61.2159    0.0000 </r>
       <r>   91.2556    0.0000 </r>
       <r>  110.2799    0.0000 </r>
       <r>  122.6177    0.0000 </r>
       <r>  183.5584    0.0000 </r>
      </set>
      <set comment="kpoint 99">
       <r>    2.2314    0.5715 </r>
       <r>   13.9315    0.0000 </r>
       <r>   47.3421    0.0000 </r>
       <r>   57.9917    0.0000 </r>
       <r>   93.2650    0.0000 </r>
       <r>  121.5003    0.0000 </r>
       <r>  132.6427    0.0000 </r>
       <r>  205.7906    0.0000 </r>
      </set>
      <set comment="kpoint 100">
       <r>    3.3131    0.0000 </r>
       <r>   12.5083    0.0000 </r>
       <r>   48.5452    0.0000 </r>
       <r>   56.4591    0.0000 </r>
       <r>   95.5302    0.0000 </r>
       <r>  112.9027    0.0000 </r>
       <r>  112.6845    0.0000 </r>
       <r>  143.3168    0.0000 </r>
      </set>
      <set comment="kpoint 101">
       <r>   -4.7384    1.0000 </r>
       <r>   30.3435    0.0000 </r>
       <r>   35.3695    0.0000 </r>
       <r>   61.8788    0.0000 </r>
       <r>  104.0805    0.0000 </r>
       <r>  107.6277    0.0000 </r>
       <r>  113.1222    0.0000 </r>
       <r>  158.8427    0.0000 </r>
      </set>
      <set comment="kpoint 102">
       <r>   -2.8758    1.0000 </r>
       <r>   26.9971    0.0000 </r>
       <r>   35.5484    0.0000 </r>
       <r>   62.8970    0.0000 </r>
       <r>   88.1757    0.0000 </r>
       <r>  102.6016    0.0000 </r>
       <r>  150.2551    0.0000 </r>
       <r>  199.3557    0.0000 </r>
      </set>
      <set comment="kpoint 103">
       <r>   -0.7412    1.0000 </r>
       <r>   22.6986    0.0000 </r>
       <r>   37.3886    0.0000 </r>
       <r>   59.8681    0.0000 </r>
       <r>   94.2636    0.0000 </r>
       <r>  119.0093    0.0000 </r>
       <r>  151.6942    0.0000 </r>
       <r>  186.9890    0.0000 </r>
      </set>
      <set comment="kpoint 104">
       <r>    1.5628    1.0000 </r>
       <r>   18.7245    0.0000 </r>
       <r>   39.6921    0.0000 </r>
       <r>   55.8374    0.0000 </r>
       <r>   88.9734    0.0000 </r>
       <r>  115.1630    0.0000 </r>
       <r>  131.2607    0.0000 </r>
       <r>  181.1074    0.0000 </r>
      </set>
      <set comment="kpoint 105">
       <r>    3.7319    0.0000 </r>
       <r>   15.5377    0.0000 </r>
       <r>   42.0275    0.0000 </r>
       <r>   52.4276    0.0000 </r>
       <r>   98.4088    0.0000 </r>
       <r>  115.6305    0.0000 </r>
       <r>  114.8141    0.0000 </r>
       <r>  167.5620    0.0000 </r>
      </set>
      <set comment="kpoint 106">
       <r>    4.7815    0.0000 </r>
       <r>   14.1399    0.0000 </r>
       <r>   43.2660    0.0000 </r>
       <r>   50.8138    0.0000 </r>
       <r>  107.2523    0.0000 </r>
       <r>  116.0861    0.0000 </r>
       <r>  128.2751    0.0000 </r>
       <r>  201.7842    0.0000 </r>
      </set>
      <set comment="kpoint 107">
       <r>   -1.0209    1.0000 </r>
       <r>   27.3060    0.0000 </r>
       <r>   32.0842    0.0000 </r>
       <r>   59.4507    0.0000 </r>
       <r>   98.4348    0.0000 </r>
       <r>  104.2101    0.0000 </r>
       <r>  107.6232    0.0000 </r>
       <r>  124.4827    0.0000 </r>
      </set>
      <set comment="kpoint 108">
       <r>    1.0942    1.0000 </r>
       <r>   24.3281    0.0000 </r>
       <r>   32.6326    0.0000 </r>
       <r>   54.8916    0.0000 </r>
       <r>   83.9515    0.0000 </r>
       <r>  102.0648    0.0000 </r>
       <r>  108.4753    0.0000 </r>
       <r>  125.8365    0.0000 </r>
      </set>
      <set comment="kpoint 109">
       <r>    3.3865    0.0000 </r>
       <r>   20.5831    0.0000 </r>
       <r>   34.7590    0.0000 </r>
       <r>   50.6987    0.0000 </r>
[...]
       </set>
       <set comment="band 7">
        <r>  0.0030  0.0405  0.4554  0.2048  0.0000  0.0000  0.0000  0.0000  0.0000 </r>
       </set>
       <set comment="band 8">
        <r>  0.3373  1.2201  0.8313  0.5207  0.0000  0.0000  0.0000  0.0000  0.0000 </r>
       </set>
      </set>
      <set comment="kpoint 270">
       <set comment="band 1">
        <r>  0.6667  0.0274  0.0274  0.0000  0.0000  0.0000  0.0000  0.0000  0.0000 </r>
       </set>
       <set comment="band 2">
        <r>  0.0000  0.0000  0.0000  0.2354  0.0000  0.0000  0.0000  0.0000  0.0000 </r>
       </set>
       <set comment="band 3">
        <r>  0.2030  0.1457  0.1457  0.0000  0.0000  0.0000  0.0000  0.0000  0.0000 </r>
       </set>
       <set comment="band 4">
        <r>  0.0000  0.3631  0.3631  0.0000  0.0000  0.0000  0.0000  0.0000  0.0000 </r>
       </set>
       <set comment="band 5">
        <r>  0.0368  0.2351  0.2351  0.0017  0.0000  0.0000  0.0000  0.0000  0.0000 </r>
       </set>
       <set comment="band 6">
        <r>  0.0003  0.0011  0.0011  0.1373  0.0000  0.0000  0.0000  0.0000  0.0000 </r>
       </set>
       <set comment="band 7">
        <r>  0.3437  0.0851  0.2577  0.0171  0.0000  0.0000  0.0000  0.0000  0.0000 </r>
       </set>
       <set comment="band 8">
        <r>  0.0006  0.2475  0.1244  0.1205  0.0000  0.0000  0.0000  0.0000  0.0000 </r>
       </set>
      </set>
      <set comment="kpoint 271">
       <set comment="band 1">
        <r>  0.5972  0.0224  0.0247  0.0224  0.0000  0.0000  0.0000  0.0000  0.0000 </r>
       </set>
       <set comment="band 2">
        <r>  0.1970  0.0657  0.0013  0.0657  0.0000  0.0000  0.0000  0.0000  0.0000 </r>
       </set>
       <set comment="band 3">
        <r>  0.0000  0.2118  0.0000  0.2118  0.0000  0.0000  0.0000  0.0000  0.0000 </r>
       </set>
       <set comment="band 4">
        <r>  0.0370  0.0351  0.3784  0.0351  0.0000  0.0000  0.0000  0.0000  0.0000 </r>
       </set>
       <set comment="band 5">
        <r>  0.0089  0.0420  0.0590  0.1362  0.0000  0.0000  0.0000  0.0000  0.0000 </r>
       </set>
       <set comment="band 6">
        <r>  0.0245  0.2771  0.0604  0.0210  0.0000  0.0000  0.0000  0.0000  0.0000 </r>
       </set>
       <set comment="band 7">
        <r>  0.1016  0.0112  0.7855  0.2156  0.0000  0.0000  0.0000  0.0000  0.0000 </r>
       </set>
       <set comment="band 8">
        <r>  0.1700  0.0093  0.7205  0.0188  0.0000  0.0000  0.0000  0.0000  0.0000 </r>
       </set>
      </set>
      <set comment="kpoint 272">
       <set comment="band 1">
        <r>  0.6657  0.0220  0.0276  0.0101  0.0000  0.0000  0.0000  0.0000  0.0000 </r>
       </set>
       <set comment="band 2">
        <r>  0.0691  0.0035  0.0000  0.2142  0.0000  0.0000  0.0000  0.0000  0.0000 </r>
       </set>
       <set comment="band 3">
        <r>  0.0730  0.3020  0.0069  0.0633  0.0000  0.0000  0.0000  0.0000  0.0000 </r>
       </set>
       <set comment="band 4">
        <r>  0.0548  0.0403  0.3997  0.0001  0.0000  0.0000  0.0000  0.0000  0.0000 </r>
       </set>
       <set comment="band 5">
        <r>  0.0202  0.2120  0.1322  0.0343  0.0000  0.0000  0.0000  0.0000  0.0000 </r>
       </set>
       <set comment="band 6">
        <r>  0.0999  0.3224  0.2817  0.7170  0.0000  0.0000  0.0000  0.0000  0.0000 </r>
       </set>
       <set comment="band 7">
        <r>  0.2113  0.0499  0.7127  0.0075  0.0000  0.0000  0.0000  0.0000  0.0000 </r>
       </set>
       <set comment="band 8">
        <r>  0.1036  0.0057  0.0222  0.4602  0.0000  0.0000  0.0000  0.0000  0.0000 </r>
       </set>
      </set>
      <set comment="kpoint 273">
       <set comment="band 1">
        <r>  0.7101  0.0231  0.0299  0.0000  0.0000  0.0000  0.0000  0.0000  0.0000 </r>
       </set>
       <set comment="band 2">
        <r>  0.0000  0.0000  0.0000  0.2580  0.0000  0.0000  0.0000  0.0000  0.0000 </r>
       </set>
       <set comment="band 3">
        <r>  0.1218  0.3461  0.0127  0.0000  0.0000  0.0000  0.0000  0.0000  0.0000 </r>
       </set>
       <set comment="band 4">
        <r>  0.0000  0.0000  0.0000  0.1909  0.0000  0.0000  0.0000  0.0000  0.0000 </r>
       </set>
       <set comment="band 5">
        <r>  0.0193  0.0403  0.1497  0.0994  0.0000  0.0000  0.0000  0.0000  0.0000 </r>
       </set>
       <set comment="band 6">
        <r>  0.0229  0.0225  0.1864  0.0910  0.0000  0.0000  0.0000  0.0000  0.0000 </r>
       </set>
       <set comment="band 7">
        <r>  0.3329  0.3956  1.0838  0.0099  0.0000  0.0000  0.0000  0.0000  0.0000 </r>
       </set>
       <set comment="band 8">
        <r>  0.0815  0.0156  0.0292  0.0387  0.0000  0.0000  0.0000  0.0000  0.0000 </r>
       </set>
      </set>
      <set comment="kpoint 274">
       <set comment="band 1">
        <r>  0.7294  0.0100  0.0295  0.0100  0.0000  0.0000  0.0000  0.0000  0.0000 </r>
       </set>
       <set comment="band 2">
        <r>  0.0662  0.1136  0.0000  0.1136  0.0000  0.0000  0.0000  0.0000  0.0000 </r>
       </set>
       <set comment="band 3">
        <r>  0.0000  0.2135  0.0000  0.2135  0.0000  0.0000  0.0000  0.0000  0.0000 </r>
       </set>
       <set comment="band 4">
        <r>  0.0227  0.0733  0.0128  0.0733  0.0000  0.0000  0.0000  0.0000  0.0000 </r>
       </set>
       <set comment="band 5">
        <r>  0.0046  0.2010  0.0300  0.0525  0.0000  0.0000  0.0000  0.0000  0.0000 </r>
       </set>
       <set comment="band 6">
        <r>  0.0025  0.0718  0.0100  0.0777  0.0000  0.0000  0.0000  0.0000  0.0000 </r>
       </set>
       <set comment="band 7">
        <r>  0.2697  0.1962  1.1911  0.1805  0.0000  0.0000  0.0000  0.0000  0.0000 </r>
       </set>
       <set comment="band 8">
        <r>  0.0160  0.2875  0.3358  0.3657  0.0000  0.0000  0.0000  0.0000  0.0000 </r>
       </set>
      </set>
      <set comment="kpoint 275">
       <set comment="band 1">
        <r>  0.7678  0.0094  0.0296  0.0000  0.0000  0.0000  0.0000  0.0000  0.0000 </r>
       </set>
       <set comment="band 2">
        <r>  0.0000  0.0000  0.0000  0.2994  0.0000  0.0000  0.0000  0.0000  0.0000 </r>
       </set>
       <set comment="band 3">
        <r>  0.0391  0.4027  0.0006  0.0000  0.0000  0.0000  0.0000  0.0000  0.0000 </r>
       </set>
       <set comment="band 4">
        <r>  0.0000  0.0000  0.0000  0.1297  0.0000  0.0000  0.0000  0.0000  0.0000 </r>
       </set>
       <set comment="band 5">
        <r>  0.0045  0.0495  0.0352  0.1737  0.0000  0.0000  0.0000  0.0000  0.0000 </r>
       </set>
       <set comment="band 6">
        <r>  0.0185  0.0725  0.1246  0.0745  0.0000  0.0000  0.0000  0.0000  0.0000 </r>
       </set>
       <set comment="band 7">
        <r>  0.2811  0.3501  0.8117  0.0253  0.0000  0.0000  0.0000  0.0000  0.0000 </r>
       </set>
       <set comment="band 8">
        <r>  0.0476  1.0751  0.1063  0.1655  0.0000  0.0000  0.0000  0.0000  0.0000 </r>
       </set>
      </set>
      <set comment="kpoint 276">
       <set comment="band 1">
        <r>  0.8002  0.0000  0.0328  0.0000  0.0000  0.0000  0.0000  0.0000  0.0000 </r>
       </set>
       <set comment="band 2">
        <r>  0.0000  0.3865  0.0000  0.0410  0.0000  0.0000  0.0000  0.0000  0.0000 </r>
       </set>
       <set comment="band 3">
        <r>  0.0000  0.0410  0.0000  0.3865  0.0000  0.0000  0.0000  0.0000  0.0000 </r>
       </set>
       <set comment="band 4">
        <r>  0.0000  0.0000  0.0000  0.0000  0.0000  0.0000  0.0000  0.0000  0.0000 </r>
       </set>
       <set comment="band 5">
        <r>  0.0005  0.2017  0.0033  0.0489  0.0000  0.0000  0.0000  0.0000  0.0000 </r>
       </set>
       <set comment="band 6">
        <r>  0.1940  0.1176  1.0342  0.2467  0.0000  0.0000  0.0000  0.0000  0.0000 </r>
       </set>
       <set comment="band 7">
        <r>  0.2559  0.4203  0.0883  0.1200  0.0000  0.0000  0.0000  0.0000  0.0000 </r>
       </set>
       <set comment="band 8">
        <r>  0.0387  0.3222  0.0014  0.1130  0.0000  0.0000  0.0000  0.0000  0.0000 </r>
       </set>
      </set>
      <set comment="kpoint 277">
       <set comment="band 1">
        <r>  0.6458  0.0224  0.0224  0.0224  0.0000  0.0000  0.0000  0.0000  0.0000 </r>
       </set>
       <set comment="band 2">
        <r>  0.1926  0.0436  0.0436  0.0436  0.0000  0.0000  0.0000  0.0000  0.0000 </r>
       </set>
       <set comment="band 3">
        <r>  0.0000  0.0752  0.3072  0.0784  0.0000  0.0000  0.0000  0.0000  0.0000 </r>
       </set>
       <set comment="band 4">
        <r>  0.0000  0.2320  0.0000  0.2288  0.0000  0.0000  0.0000  0.0000  0.0000 </r>
       </set>
       <set comment="band 5">
        <r>  0.0123  0.0941  0.0730  0.0940  0.0000  0.0000  0.0000  0.0000  0.0000 </r>
       </set>
       <set comment="band 6">
        <r>  0.3523  0.6857  0.2341  0.8542  0.0000  0.0000  0.0000  0.0000  0.0000 </r>
       </set>
       <set comment="band 7">
        <r>  0.0160  0.1129  0.4561  0.1136  0.0000  0.0000  0.0000  0.0000  0.0000 </r>
       </set>
       <set comment="band 8">
        <r>  0.0756  0.2056  0.1885  0.9029  0.0000  0.0000  0.0000  0.0000  0.0000 </r>
       </set>
      </set>
      <set comment="kpoint 278">
       <set comment="band 1">
        <r>  0.7133  0.0225  0.0225  0.0114  0.0000  0.0000  0.0000  0.0000  0.0000 </r>
       </set>
       <set comment="band 2">
        <r>  0.0754  0.0057  0.0057  0.2080  0.0000  0.0000  0.0000  0.0000  0.0000 </r>
       </set>
       <set comment="band 3">
        <r>  0.0719  0.1400  0.1400  0.1016  0.0000  0.0000  0.0000  0.0000  0.0000 </r>
       </set>
       <set comment="band 4">
        <r>  0.0000  0.2739  0.2739  0.0000  0.0000  0.0000  0.0000  0.0000  0.0000 </r>
       </set>
       <set comment="band 5">
        <r>  0.0205  0.2336  0.1367  0.0001  0.0000  0.0000  0.0000  0.0000  0.0000 </r>
       </set>
       <set comment="band 6">
        <r>  0.3887  0.7699  0.7434  0.1652  0.0000  0.0000  0.0000  0.0000  0.0000 </r>
       </set>
       <set comment="band 7">
        <r>  0.0016  0.0585  0.0400  0.3030  0.0000  0.0000  0.0000  0.0000  0.0000 </r>
       </set>
       <set comment="band 8">
        <r>  0.0322  0.2672  0.0856  0.0299  0.0000  0.0000  0.0000  0.0000  0.0000 </r>
       </set>
      </set>
      <set comment="kpoint 279">
       <set comment="band 1">
        <r>  0.7545  0.0236  0.0236  0.0000  0.0000  0.0000  0.0000  0.0000  0.0000 </r>
       </set>
       <set comment="band 2">
        <r>  0.0000  0.0000  0.0000  0.2758  0.0000  0.0000  0.0000  0.0000  0.0000 </r>
       </set>
       <set comment="band 3">
        <r>  0.1282  0.1686  0.1686  0.0000  0.0000  0.0000  0.0000  0.0000  0.0000 </r>
       </set>
       <set comment="band 4">
        <r>  0.0000  0.3591  0.3591  0.0000  0.0000  0.0000  0.0000  0.0000  0.0000 </r>
       </set>
       <set comment="band 5">
        <r>  0.0234  0.1926  0.1926  0.0002  0.0000  0.0000  0.0000  0.0000  0.0000 </r>
       </set>
       <set comment="band 6">
        <r>  0.0000  0.0000  0.0000  0.1200  0.0000  0.0000  0.0000  0.0000  0.0000 </r>
       </set>
       <set comment="band 7">
        <r>  0.4018  0.8259  0.7665  0.0072  0.0000  0.0000  0.0000  0.0000  0.0000 </r>
       </set>
       <set comment="band 8">
        <r>  0.0018  0.1892  0.1602  0.3492  0.0000  0.0000  0.0000  0.0000  0.0000 </r>
       </set>
      </set>
      <set comment="kpoint 280">
       <set comment="band 1">
        <r>  0.7749  0.0101  0.0228  0.0101  0.0000  0.0000  0.0000  0.0000  0.0000 </r>
       </set>
       <set comment="band 2">
        <r>  0.0667  0.1164  0.0067  0.1164  0.0000  0.0000  0.0000  0.0000  0.0000 </r>
       </set>
       <set comment="band 3">
        <r>  0.0000  0.2287  0.0000  0.2287  0.0000  0.0000  0.0000  0.0000  0.0000 </r>
       </set>
       <set comment="band 4">
        <r>  0.0389  0.0150  0.4749  0.0150  0.0000  0.0000  0.0000  0.0000  0.0000 </r>
       </set>
       <set comment="band 5">
        <r>  0.0148  0.0256  0.1600  0.0418  0.0000  0.0000  0.0000  0.0000  0.0000 </r>
       </set>
       <set comment="band 6">
        <r>  0.0030  0.0137  0.0242  0.1038  0.0000  0.0000  0.0000  0.0000  0.0000 </r>
       </set>
       <set comment="band 7">
        <r>  0.4378  0.1207  0.9278  0.2292  0.0000  0.0000  0.0000  0.0000  0.0000 </r>
       </set>
       <set comment="band 8">
        <r>  0.0056  0.1009  0.1242  0.1421  0.0000  0.0000  0.0000  0.0000  0.0000 </r>
       </set>
      </set>
      <set comment="kpoint 281">
       <set comment="band 1">
        <r>  0.8100  0.0095  0.0222  0.0000  0.0000  0.0000  0.0000  0.0000  0.0000 </r>
       </set>
       <set comment="band 2">
        <r>  0.0000  0.0000  0.0000  0.3214  0.0000  0.0000  0.0000  0.0000  0.0000 </r>
       </set>
       <set comment="band 3">
        <r>  0.0429  0.4084  0.0137  0.0000  0.0000  0.0000  0.0000  0.0000  0.0000 </r>
       </set>
       <set comment="band 4">
        <r>  0.0000  0.0000  0.0000  0.1438  0.0000  0.0000  0.0000  0.0000  0.0000 </r>
       </set>
       <set comment="band 5">
        <r>  0.0083  0.1701  0.0700  0.0660  0.0000  0.0000  0.0000  0.0000  0.0000 </r>
       </set>
       <set comment="band 6">
        <r>  0.0039  0.0383  0.0369  0.1542  0.0000  0.0000  0.0000  0.0000  0.0000 </r>
       </set>
       <set comment="band 7">
        <r>  0.3341  0.1329  1.3103  0.0051  0.0000  0.0000  0.0000  0.0000  0.0000 </r>
       </set>
       <set comment="band 8">
        <r>  0.0990  0.4208  0.0909  0.0682  0.0000  0.0000  0.0000  0.0000  0.0000 </r>
       </set>
      </set>
      <set comment="kpoint 282">
       <set comment="band 1">
        <r>  0.8412  0.0000  0.0166  0.0000  0.0000  0.0000  0.0000  0.0000  0.0000 </r>
       </set>
       <set comment="band 2">
        <r>  0.0000  0.4212  0.0000  0.0267  0.0000  0.0000  0.0000  0.0000  0.0000 </r>
       </set>
       <set comment="band 3">
        <r>  0.0000  0.0267  0.0000  0.4212  0.0000  0.0000  0.0000  0.0000  0.0000 </r>
       </set>
       <set comment="band 4">
        <r>  0.0000  0.0000  0.0000  0.0000  0.0000  0.0000  0.0000  0.0000  0.0000 </r>
       </set>
       <set comment="band 5">
        <r>  0.0000  0.2543  0.0000  0.0082  0.0000  0.0000  0.0000  0.0000  0.0000 </r>
       </set>
       <set comment="band 6">
        <r>  0.0001  0.0001  0.0013  0.0024  0.0000  0.0000  0.0000  0.0000  0.0000 </r>
       </set>
       <set comment="band 7">
        <r>  0.3758  0.1895  0.5067  0.0569  0.0000  0.0000  0.0000  0.0000  0.0000 </r>
       </set>
       <set comment="band 8">
        <r>  0.0942  1.5325  0.0837  0.1562  0.0000  0.0000  0.0000  0.0000  0.0000 </r>
       </set>
      </set>
      <set comment="kpoint 283">
       <set comment="band 1">
        <r>  0.8303  0.0089  0.0089  0.0089  0.0000  0.0000  0.0000  0.0000  0.0000 </r>
       </set>
       <set comment="band 2">
        <r>  0.0558  0.0935  0.0935  0.0935  0.0000  0.0000  0.0000  0.0000  0.0000 </r>
       </set>
       <set comment="band 3">
        <r>  0.0000  0.2144  0.3110  0.0112  0.0000  0.0000  0.0000  0.0000  0.0000 </r>
       </set>
       <set comment="band 4">
        <r>  0.0000  0.1433  0.0467  0.3466  0.0000  0.0000  0.0000  0.0000  0.0000 </r>
       </set>
       <set comment="band 5">
        <r>  0.0033  0.0425  0.0425  0.0426  0.0000  0.0000  0.0000  0.0000  0.0000 </r>
       </set>
       <set comment="band 6">
        <r>  0.2601  1.1925  0.6501  0.0302  0.0000  0.0000  0.0000  0.0000  0.0000 </r>
       </set>
       <set comment="band 7">
        <r>  0.2363  0.4407  0.0060  0.5642  0.0000  0.0000  0.0000  0.0000  0.0000 </r>
       </set>
       <set comment="band 8">
        <r>  0.0008  0.0274  0.0111  0.1020  0.0000  0.0000  0.0000  0.0000  0.0000 </r>
       </set>
      </set>
      <set comment="kpoint 284">
       <set comment="band 1">
        <r>  0.8606  0.0066  0.0066  0.0000  0.0000  0.0000  0.0000  0.0000  0.0000 </r>
       </set>
       <set comment="band 2">
        <r>  0.0000  0.0000  0.0000  0.3778  0.0000  0.0000  0.0000  0.0000  0.0000 </r>
       </set>
       <set comment="band 3">
        <r>  0.0404  0.2245  0.2245  0.0000  0.0000  0.0000  0.0000  0.0000  0.0000 </r>
       </set>
       <set comment="band 4">
        <r>  0.0000  0.3551  0.3551  0.0000  0.0000  0.0000  0.0000  0.0000  0.0000 </r>
       </set>
       <set comment="band 5">
        <r>  0.0000  0.0000  0.0000  0.1817  0.0000  0.0000  0.0000  0.0000  0.0000 </r>
       </set>
       <set comment="band 6">
        <r>  0.0073  0.1292  0.1292  0.0003  0.0000  0.0000  0.0000  0.0000  0.0000 </r>
       </set>
       <set comment="band 7">
        <r>  0.0000  0.0000  0.0000  0.0657  0.0000  0.0000  0.0000  0.0000  0.0000 </r>
       </set>
       <set comment="band 8">
        <r>  0.5024  0.3561  0.2734  0.0209  0.0000  0.0000  0.0000  0.0000  0.0000 </r>
       </set>
      </set>
      <set comment="kpoint 285">
       <set comment="band 1">
        <r>  0.8859  0.0000  0.0064  0.0000  0.0000  0.0000  0.0000  0.0000  0.0000 </r>
       </set>
       <set comment="band 2">
        <r>  0.0000  0.0351  0.0000  0.4988  0.0000  0.0000  0.0000  0.0000  0.0000 </r>
       </set>
       <set comment="band 3">
        <r>  0.0000  0.4988  0.0000  0.0351  0.0000  0.0000  0.0000  0.0000  0.0000 </r>
       </set>
       <set comment="band 4">
        <r>  0.0224  0.0000  0.7090  0.0000  0.0000  0.0000  0.0000  0.0000  0.0000 </r>
       </set>
       <set comment="band 5">
        <r>  0.0000  0.0003  0.0000  0.0048  0.0000  0.0000  0.0000  0.0000  0.0000 </r>
       </set>
       <set comment="band 6">
        <r>  0.5115  0.0676  0.3209  0.0372  0.0000  0.0000  0.0000  0.0000  0.0000 </r>
       </set>
       <set comment="band 7">
        <r>  0.0370  0.4753  0.8080  0.7236  0.0000  0.0000  0.0000  0.0000  0.0000 </r>
       </set>
       <set comment="band 8">
        <r>  0.0030  0.0199  0.3426  0.2869  0.0000  0.0000  0.0000  0.0000  0.0000 </r>
       </set>
      </set>
      <set comment="kpoint 286">
       <set comment="band 1">
        <r>  0.9084  0.0000  0.0000  0.0000  0.0000  0.0000  0.0000  0.0000  0.0000 </r>
       </set>
       <set comment="band 2">
        <r>  0.0000  0.0186  0.6891  0.0011  0.0000  0.0000  0.0000  0.0000  0.0000 </r>
       </set>
       <set comment="band 3">
        <r>  0.0000  0.0075  0.0016  0.6997  0.0000  0.0000  0.0000  0.0000  0.0000 </r>
       </set>
       <set comment="band 4">
        <r>  0.0000  0.6827  0.0181  0.0080  0.0000  0.0000  0.0000  0.0000  0.0000 </r>
       </set>
       <set comment="band 5">
        <r>  0.0000  0.0000  0.0000  0.0000  0.0000  0.0000  0.0000  0.0000  0.0000 </r>
       </set>
       <set comment="band 6">
        <r>  0.0000  0.0000  0.0000  0.0000  0.0000  0.0000  0.0000  0.0000  0.0000 </r>
       </set>
       <set comment="band 7">
        <r>  0.5910  0.0005  0.0020  0.0002  0.0000  0.0000  0.0000  0.0000  0.0000 </r>
       </set>
       <set comment="band 8">
        <r>  0.0000  1.5423  0.5224  0.0234  0.0000  0.0000  0.0000  0.0000  0.0000 </r>
       </set>
      </set>
     </set>
    </set>
   </array>
  </projected>
 </calculation>
 <structure name="finalpos" >
  <crystal>
   <varray name="basis" >
    <v>       1.43536055       0.00000000       0.00000000 </v>
    <v>       0.00000000       1.43536055       0.00000000 </v>
    <v>       0.00000000       0.00000000       1.43536055 </v>
   </varray>
   <i name="volume">      2.95721580 </i>
   <varray name="rec_basis" >
    <v>       0.69668907       0.00000000       0.00000000 </v>
    <v>       0.00000000       0.69668907       0.00000000 </v>
    <v>       0.00000000       0.00000000       0.69668907 </v>
   </varray>
  </crystal>
  <varray name="positions" >
   <v>       0.00000000       0.00000000       0.00000000 </v>
  </varray>
 </structure>
</modeling>
