   1   1   1   0
  0.2962939E+01  0.1436286E-09  0.1436286E-09  0.1436286E-09  0.5000000E-15
  1.000000000000000E-004
  CAR 
 jump2                                   
     81.88641284    -18.15052938  301      2.24742500      1.00000000
    -18.151  0.0000E+00  0.0000E+00
    -17.817  0.0000E+00  0.0000E+00
    -17.484  0.0000E+00  0.0000E+00
    -17.150  0.0000E+00  0.0000E+00
    -16.817  0.0000E+00  0.0000E+00
    -16.483  0.0000E+00  0.0000E+00
    -16.150  0.0000E+00  0.0000E+00
    -15.816  0.0000E+00  0.0000E+00
    -15.483  0.0000E+00  0.0000E+00
    -15.149  0.0000E+00  0.0000E+00
    -14.816  0.0000E+00  0.0000E+00
    -14.483  0.0000E+00  0.0000E+00
    -14.149  0.1484E-18  0.4950E-19
    -13.816  0.3363E-07  0.1121E-07
    -13.482  0.5681E-04  0.1896E-04
    -13.149  0.4255E-03  0.1608E-03
    -12.815  0.3826E-03  0.2884E-03
    -12.482  0.1052E-02  0.6393E-03
    -12.148  0.3639E-03  0.7607E-03
    -11.815  0.1212E-02  0.1165E-02
    -11.481  0.9071E-03  0.1467E-02
    -11.148  0.1250E-02  0.1884E-02
    -10.814  0.6936E-03  0.2115E-02
    -10.481  0.1567E-02  0.2638E-02
    -10.148  0.1346E-02  0.3087E-02
     -9.814  0.1702E-02  0.3654E-02
     -9.481  0.6287E-03  0.3864E-02
     -9.147  0.1382E-02  0.4325E-02
     -8.814  0.2388E-02  0.5121E-02
     -8.480  0.1556E-02  0.5640E-02
     -8.147  0.1561E-02  0.6161E-02
     -7.813  0.1082E-02  0.6521E-02
     -7.480  0.2352E-02  0.7306E-02
     -7.146  0.1695E-02  0.7871E-02
     -6.813  0.1911E-02  0.8508E-02
     -6.480  0.1712E-02  0.9079E-02
     -6.146  0.2625E-02  0.9954E-02
     -5.813  0.1582E-02  0.1048E-01
     -5.479  0.2459E-02  0.1130E-01
     -5.146  0.7108E-03  0.1154E-01
     -4.812  0.3330E-02  0.1265E-01
     -4.479  0.2108E-02  0.1335E-01
     -4.145  0.3361E-02  0.1447E-01
     -3.812  0.1570E-02  0.1500E-01
     -3.478  0.2215E-02  0.1573E-01
     -3.145  0.1292E-02  0.1617E-01
     -2.812  0.4024E-02  0.1751E-01
     -2.478  0.1519E-02  0.1801E-01
     -2.145  0.3695E-02  0.1925E-01
     -1.811  0.2737E-02  0.2016E-01
     -1.478  0.2231E-02  0.2090E-01
     -1.144  0.2317E-02  0.2167E-01
     -0.811  0.2995E-02  0.2267E-01
     -0.477  0.3446E-02  0.2382E-01
     -0.144  0.3579E-02  0.2502E-01
      0.190  0.3016E-02  0.2602E-01
      0.523  0.2808E-02  0.2696E-01
      0.856  0.3446E-02  0.2811E-01
      1.190  0.3574E-02  0.2930E-01
      1.523  0.3904E-02  0.3060E-01
      1.857  0.4319E-02  0.3204E-01
      2.190  0.3298E-02  0.3314E-01
      2.524  0.2708E-02  0.3404E-01
      2.857  0.2730E-02  0.3495E-01
      3.191  0.2705E-02  0.3586E-01
      3.524  0.3844E-02  0.3714E-01
      3.858  0.5143E-02  0.3885E-01
      4.191  0.2398E-02  0.3965E-01
      4.525  0.1330E-02  0.4010E-01
      4.858  0.3515E-02  0.4127E-01
      5.191  0.2294E-02  0.4203E-01
      5.525  0.4044E-02  0.4338E-01
      5.858  0.2349E-02  0.4416E-01
      6.192  0.4155E-02  0.4555E-01
      6.525  0.1580E-02  0.4608E-01
      6.859  0.1978E-02  0.4674E-01
      7.192  0.2173E-02  0.4746E-01
      7.526  0.3650E-02  0.4868E-01
      7.859  0.2227E-02  0.4942E-01
      8.193  0.4254E-02  0.5084E-01
      8.526  0.8472E-03  0.5112E-01
      8.859  0.1283E-02  0.5155E-01
      9.193  0.3070E-02  0.5257E-01
      9.526  0.3118E-02  0.5361E-01
      9.860  0.2565E-02  0.5447E-01
     10.193  0.3153E-02  0.5552E-01
     10.527  0.2042E-02  0.5620E-01
     10.860  0.8802E-03  0.5649E-01
     11.194  0.4426E-02  0.5797E-01
     11.527  0.4049E-02  0.5932E-01
     11.861  0.3355E-02  0.6044E-01
     12.194  0.2714E-02  0.6134E-01
     12.527  0.2827E-02  0.6229E-01
     12.861  0.3214E-02  0.6336E-01
     13.194  0.2955E-02  0.6434E-01
     13.528  0.3329E-02  0.6545E-01
     13.861  0.1789E-02  0.6605E-01
     14.195  0.3825E-02  0.6733E-01
     14.528  0.2894E-02  0.6829E-01
     14.862  0.1931E-02  0.6893E-01
     15.195  0.3422E-02  0.7008E-01
     15.529  0.4118E-02  0.7145E-01
     15.862  0.2535E-02  0.7229E-01
     16.195  0.4354E-02  0.7375E-01
     16.529  0.1176E-02  0.7414E-01
     16.862  0.2264E-02  0.7489E-01
     17.196  0.4392E-02  0.7636E-01
     17.529  0.2842E-02  0.7730E-01
     17.863  0.2966E-02  0.7829E-01
     18.196  0.1730E-02  0.7887E-01
     18.530  0.3127E-02  0.7991E-01
     18.863  0.4735E-02  0.8149E-01
     19.197  0.3860E-02  0.8278E-01
     19.530  0.2142E-02  0.8349E-01
     19.864  0.3784E-02  0.8476E-01
     20.197  0.4306E-02  0.8619E-01
     20.530  0.4076E-02  0.8755E-01
     20.864  0.1871E-02  0.8818E-01
     21.197  0.4428E-02  0.8965E-01
     21.531  0.3619E-02  0.9086E-01
     21.864  0.3158E-02  0.9191E-01
     22.198  0.2275E-02  0.9267E-01
     22.531  0.3850E-02  0.9395E-01
     22.865  0.5945E-02  0.9594E-01
     23.198  0.3680E-02  0.9716E-01
     23.532  0.2286E-02  0.9793E-01
     23.865  0.4853E-02  0.9954E-01
     24.198  0.6000E-02  0.1015E+00
     24.532  0.3875E-02  0.1028E+00
     24.865  0.4779E-02  0.1044E+00
     25.199  0.4581E-02  0.1060E+00
     25.532  0.3273E-02  0.1070E+00
     25.866  0.4448E-02  0.1085E+00
     26.199  0.2288E-02  0.1093E+00
     26.533  0.3440E-02  0.1104E+00
     26.866  0.5323E-02  0.1122E+00
     27.200  0.4801E-02  0.1138E+00
     27.533  0.3288E-02  0.1149E+00
     27.866  0.2685E-02  0.1158E+00
     28.200  0.3453E-02  0.1170E+00
     28.533  0.6455E-02  0.1191E+00
     28.867  0.5128E-02  0.1208E+00
     29.200  0.2048E-02  0.1215E+00
     29.534  0.5508E-02  0.1233E+00
     29.867  0.3128E-02  0.1244E+00
     30.201  0.4159E-02  0.1258E+00
     30.534  0.8177E-02  0.1285E+00
     30.868  0.4999E-02  0.1302E+00
     31.201  0.3294E-02  0.1313E+00
     31.534  0.2127E-02  0.1320E+00
     31.868  0.4064E-02  0.1333E+00
     32.201  0.2689E-02  0.1342E+00
     32.535  0.3512E-02  0.1354E+00
     32.868  0.5813E-02  0.1373E+00
     33.202  0.5371E-02  0.1391E+00
     33.535  0.2219E-02  0.1399E+00
     33.869  0.2741E-02  0.1408E+00
     34.202  0.7010E-02  0.1431E+00
     34.536  0.3787E-02  0.1444E+00
     34.869  0.5617E-02  0.1463E+00
     35.203  0.5549E-02  0.1481E+00
     35.536  0.6397E-02  0.1502E+00
     35.869  0.2280E-02  0.1510E+00
     36.203  0.4520E-02  0.1525E+00
     36.536  0.3751E-02  0.1538E+00
     36.870  0.4343E-02  0.1552E+00
     37.203  0.4598E-02  0.1567E+00
     37.537  0.3674E-02  0.1580E+00
     37.870  0.4084E-02  0.1593E+00
     38.204  0.5957E-02  0.1613E+00
     38.537  0.7831E-02  0.1639E+00
     38.871  0.4810E-02  0.1655E+00
     39.204  0.5799E-02  0.1675E+00
     39.537  0.6053E-02  0.1695E+00
     39.871  0.5756E-02  0.1714E+00
     40.204  0.1686E-02  0.1720E+00
     40.538  0.4098E-02  0.1733E+00
     40.871  0.8340E-02  0.1761E+00
     41.205  0.3346E-02  0.1772E+00
     41.538  0.1001E-02  0.1776E+00
     41.872  0.6392E-02  0.1797E+00
     42.205  0.4749E-02  0.1813E+00
     42.539  0.4943E-02  0.1829E+00
     42.872  0.3331E-02  0.1840E+00
     43.205  0.4792E-02  0.1856E+00
     43.539  0.5426E-02  0.1874E+00
     43.872  0.6888E-02  0.1897E+00
     44.206  0.6866E-02  0.1920E+00
     44.539  0.5638E-02  0.1939E+00
     44.873  0.3141E-02  0.1950E+00
     45.206  0.4506E-02  0.1965E+00
     45.540  0.2518E-02  0.1973E+00
     45.873  0.5123E-02  0.1990E+00
     46.207  0.4194E-02  0.2004E+00
     46.540  0.5472E-02  0.2022E+00
     46.873  0.3875E-02  0.2035E+00
     47.207  0.3244E-02  0.2046E+00
     47.540  0.4326E-02  0.2060E+00
     47.874  0.3871E-02  0.2073E+00
     48.207  0.6251E-02  0.2094E+00
     48.541  0.7481E-02  0.2119E+00
     48.874  0.2956E-02  0.2129E+00
     49.208  0.2772E-02  0.2138E+00
     49.541  0.4062E-02  0.2152E+00
     49.875  0.2311E-02  0.2159E+00
     50.208  0.3247E-02  0.2170E+00
     50.542  0.4478E-02  0.2185E+00
     50.875  0.6425E-02  0.2207E+00
     51.208  0.3013E-02  0.2217E+00
     51.542  0.4302E-02  0.2231E+00
     51.875  0.1479E-02  0.2236E+00
     52.209  0.3822E-02  0.2249E+00
     52.542  0.3667E-02  0.2261E+00
     52.876  0.3843E-02  0.2274E+00
     53.209  0.6278E-02  0.2295E+00
     53.543  0.2795E-02  0.2304E+00
     53.876  0.3020E-02  0.2314E+00
     54.210  0.4740E-02  0.2330E+00
     54.543  0.1442E-02  0.2335E+00
     54.876  0.3149E-02  0.2345E+00
     55.210  0.3064E-02  0.2355E+00
     55.543  0.4092E-02  0.2369E+00
     55.877  0.2795E-02  0.2378E+00
     56.210  0.4047E-02  0.2392E+00
     56.544  0.4173E-02  0.2406E+00
     56.877  0.1272E-02  0.2410E+00
     57.211  0.2524E-02  0.2418E+00
     57.544  0.4135E-02  0.2432E+00
     57.878  0.2050E-02  0.2439E+00
     58.211  0.4344E-02  0.2454E+00
     58.544  0.4776E-02  0.2469E+00
     58.878  0.2610E-02  0.2478E+00
     59.211  0.1304E-02  0.2483E+00
     59.545  0.2723E-02  0.2492E+00
     59.878  0.3212E-02  0.2502E+00
     60.212  0.2686E-02  0.2511E+00
     60.545  0.1461E-02  0.2516E+00
     60.879  0.2999E-02  0.2526E+00
     61.212  0.1853E-02  0.2532E+00
     61.546  0.2041E-02  0.2539E+00
     61.879  0.1909E-02  0.2546E+00
     62.212  0.1646E-02  0.2551E+00
     62.546  0.3660E-02  0.2563E+00
     62.879  0.1911E-02  0.2570E+00
     63.213  0.2572E-02  0.2578E+00
     63.546  0.2122E-02  0.2585E+00
     63.880  0.3978E-02  0.2599E+00
     64.213  0.8036E-03  0.2601E+00
     64.547  0.2385E-02  0.2609E+00
     64.880  0.4411E-03  0.2611E+00
     65.214  0.1574E-02  0.2616E+00
     65.547  0.1669E-02  0.2621E+00
     65.881  0.7114E-03  0.2624E+00
     66.214  0.1452E-02  0.2629E+00
     66.547  0.5882E-03  0.2631E+00
     66.881  0.1466E-02  0.2635E+00
     67.214  0.1173E-02  0.2639E+00
     67.548  0.6554E-05  0.2639E+00
     67.881  0.2604E-03  0.2640E+00
     68.215  0.2191E-02  0.2648E+00
     68.548  0.6912E-03  0.2650E+00
     68.882  0.7750E-03  0.2652E+00
     69.215  0.1311E-03  0.2653E+00
     69.549  0.1680E-04  0.2653E+00
     69.882  0.1052E-02  0.2656E+00
     70.215  0.7319E-03  0.2659E+00
     70.549  0.1473E-03  0.2659E+00
     70.882  0.4226E-03  0.2661E+00
     71.216  0.1783E-03  0.2661E+00
     71.549  0.4291E-05  0.2661E+00
     71.883  0.2939E-03  0.2662E+00
     72.216  0.1724E-05  0.2662E+00
     72.550  0.2041E-12  0.2662E+00
     72.883  0.1635E-04  0.2662E+00
     73.217  0.2296E-03  0.2663E+00
     73.550  0.5037E-03  0.2665E+00
     73.883  0.5925E-07  0.2665E+00
     74.217  0.0000E+00  0.2665E+00
     74.550  0.0000E+00  0.2665E+00
     74.884  0.2814E-12  0.2665E+00
     75.217  0.2942E-04  0.2665E+00
     75.551  0.2764E-03  0.2666E+00
     75.884  0.1438E-03  0.2666E+00
     76.218  0.2275E-06  0.2666E+00
     76.551  0.0000E+00  0.2666E+00
     76.885  0.4764E-14  0.2666E+00
     77.218  0.3238E-05  0.2666E+00
     77.551  0.7163E-04  0.2667E+00
     77.885  0.1009E-06  0.2667E+00
     78.218  0.0000E+00  0.2667E+00
     78.552  0.0000E+00  0.2667E+00
     78.885  0.0000E+00  0.2667E+00
     79.219  0.0000E+00  0.2667E+00
     79.552  0.0000E+00  0.2667E+00
     79.886  0.0000E+00  0.2667E+00
     80.219  0.0000E+00  0.2667E+00
     80.553  0.0000E+00  0.2667E+00
     80.886  0.0000E+00  0.2667E+00
     81.219  0.0000E+00  0.2667E+00
     81.553  0.0000E+00  0.2667E+00
     81.886  0.0000E+00  0.2667E+00
     81.88641284    -18.15052938  301      2.24742500      1.00000000
    -18.151  0.0000E+00  0.0000E+00  0.0000E+00  0.0000E+00  0.0000E+00  0.0000E+00  0.0000E+00  0.0000E+00  0.0000E+00
    -17.817  0.0000E+00  0.0000E+00  0.0000E+00  0.0000E+00  0.0000E+00  0.0000E+00  0.0000E+00  0.0000E+00  0.0000E+00
    -17.484  0.0000E+00  0.0000E+00  0.0000E+00  0.0000E+00  0.0000E+00  0.0000E+00  0.0000E+00  0.0000E+00  0.0000E+00
    -17.150  0.0000E+00  0.0000E+00  0.0000E+00  0.0000E+00  0.0000E+00  0.0000E+00  0.0000E+00  0.0000E+00  0.0000E+00
    -16.817  0.0000E+00  0.0000E+00  0.0000E+00  0.0000E+00  0.0000E+00  0.0000E+00  0.0000E+00  0.0000E+00  0.0000E+00
    -16.483  0.0000E+00  0.0000E+00  0.0000E+00  0.0000E+00  0.0000E+00  0.0000E+00  0.0000E+00  0.0000E+00  0.0000E+00
    -16.150  0.0000E+00  0.0000E+00  0.0000E+00  0.0000E+00  0.0000E+00  0.0000E+00  0.0000E+00  0.0000E+00  0.0000E+00
    -15.816  0.0000E+00  0.0000E+00  0.0000E+00  0.0000E+00  0.0000E+00  0.0000E+00  0.0000E+00  0.0000E+00  0.0000E+00
    -15.483  0.0000E+00  0.0000E+00  0.0000E+00  0.0000E+00  0.0000E+00  0.0000E+00  0.0000E+00  0.0000E+00  0.0000E+00
    -15.149  0.0000E+00  0.0000E+00  0.0000E+00  0.0000E+00  0.0000E+00  0.0000E+00  0.0000E+00  0.0000E+00  0.0000E+00
    -14.816  0.0000E+00  0.0000E+00  0.0000E+00  0.0000E+00  0.0000E+00  0.0000E+00  0.0000E+00  0.0000E+00  0.0000E+00
    -14.483  0.0000E+00  0.0000E+00  0.0000E+00  0.0000E+00  0.0000E+00  0.0000E+00  0.0000E+00  0.0000E+00  0.0000E+00
    -14.149  0.1833E-17  0.3109E-37  0.1662E-37  0.1355E-37  0.0000E+00  0.0000E+00  0.0000E+00  0.0000E+00  0.0000E+00
    -13.816  0.4154E-06  0.4099E-20  0.1176E-25  0.5603E-13  0.0000E+00  0.0000E+00  0.0000E+00  0.0000E+00  0.0000E+00
    -13.482  0.7014E-03  0.3069E-08  0.1597E-13  0.6224E-06  0.0000E+00  0.0000E+00  0.0000E+00  0.0000E+00  0.0000E+00
    -13.149  0.5248E-02  0.5820E-05  0.5626E-06  0.8036E-05  0.0000E+00  0.0000E+00  0.0000E+00  0.0000E+00  0.0000E+00
    -12.815  0.4715E-02  0.4757E-05  0.3234E-05  0.1798E-04  0.0000E+00  0.0000E+00  0.0000E+00  0.0000E+00  0.0000E+00
    -12.482  0.1295E-01  0.1977E-04  0.9430E-05  0.7947E-04  0.0000E+00  0.0000E+00  0.0000E+00  0.0000E+00  0.0000E+00
    -12.148  0.4473E-02  0.1877E-04  0.2480E-05  0.2556E-04  0.0000E+00  0.0000E+00  0.0000E+00  0.0000E+00  0.0000E+00
    -11.815  0.1489E-01  0.5073E-04  0.1142E-04  0.1149E-03  0.0000E+00  0.0000E+00  0.0000E+00  0.0000E+00  0.0000E+00
    -11.481  0.1114E-01  0.2149E-04  0.1756E-04  0.1132E-03  0.0000E+00  0.0000E+00  0.0000E+00  0.0000E+00  0.0000E+00
    -11.148  0.1532E-01  0.8300E-04  0.1503E-04  0.1563E-03  0.0000E+00  0.0000E+00  0.0000E+00  0.0000E+00  0.0000E+00
    -10.814  0.8503E-02  0.4182E-04  0.1117E-04  0.9907E-04  0.0000E+00  0.0000E+00  0.0000E+00  0.0000E+00  0.0000E+00
    -10.481  0.1920E-01  0.5984E-04  0.3805E-04  0.2856E-03  0.0000E+00  0.0000E+00  0.0000E+00  0.0000E+00  0.0000E+00
    -10.148  0.1649E-01  0.1217E-03  0.1654E-04  0.2265E-03  0.0000E+00  0.0000E+00  0.0000E+00  0.0000E+00  0.0000E+00
     -9.814  0.2084E-01  0.1297E-03  0.2533E-04  0.3639E-03  0.0000E+00  0.0000E+00  0.0000E+00  0.0000E+00  0.0000E+00
     -9.481  0.7685E-02  0.7407E-04  0.3439E-04  0.9524E-04  0.0000E+00  0.0000E+00  0.0000E+00  0.0000E+00  0.0000E+00
     -9.147  0.1693E-01  0.1227E-03  0.3354E-04  0.3544E-03  0.0000E+00  0.0000E+00  0.0000E+00  0.0000E+00  0.0000E+00
     -8.814  0.2929E-01  0.1996E-03  0.4969E-04  0.6678E-03  0.0000E+00  0.0000E+00  0.0000E+00  0.0000E+00  0.0000E+00
     -8.480  0.1907E-01  0.1593E-03  0.5315E-04  0.4419E-03  0.0000E+00  0.0000E+00  0.0000E+00  0.0000E+00  0.0000E+00
     -8.147  0.1917E-01  0.1239E-03  0.3552E-04  0.5074E-03  0.0000E+00  0.0000E+00  0.0000E+00  0.0000E+00  0.0000E+00
     -7.813  0.1326E-01  0.1883E-03  0.3430E-04  0.3038E-03  0.0000E+00  0.0000E+00  0.0000E+00  0.0000E+00  0.0000E+00
     -7.480  0.2884E-01  0.3454E-03  0.1077E-03  0.7407E-03  0.0000E+00  0.0000E+00  0.0000E+00  0.0000E+00  0.0000E+00
     -7.146  0.2089E-01  0.2239E-03  0.3925E-04  0.6229E-03  0.0000E+00  0.0000E+00  0.0000E+00  0.0000E+00  0.0000E+00
     -6.813  0.2358E-01  0.1815E-03  0.7648E-04  0.7716E-03  0.0000E+00  0.0000E+00  0.0000E+00  0.0000E+00  0.0000E+00
     -6.480  0.2123E-01  0.1858E-03  0.3495E-04  0.7701E-03  0.0000E+00  0.0000E+00  0.0000E+00  0.0000E+00  0.0000E+00
     -6.146  0.3230E-01  0.5450E-03  0.1115E-03  0.9786E-03  0.0000E+00  0.0000E+00  0.0000E+00  0.0000E+00  0.0000E+00
     -5.813  0.1957E-01  0.2183E-03  0.1172E-03  0.6803E-03  0.0000E+00  0.0000E+00  0.0000E+00  0.0000E+00  0.0000E+00
     -5.479  0.3045E-01  0.4706E-03  0.7210E-04  0.1100E-02  0.0000E+00  0.0000E+00  0.0000E+00  0.0000E+00  0.0000E+00
     -5.146  0.8872E-02  0.9650E-04  0.6283E-04  0.3220E-03  0.0000E+00  0.0000E+00  0.0000E+00  0.0000E+00  0.0000E+00
     -4.812  0.4163E-01  0.5485E-03  0.2095E-03  0.1565E-02  0.0000E+00  0.0000E+00  0.0000E+00  0.0000E+00  0.0000E+00
     -4.479  0.2640E-01  0.4950E-03  0.3773E-04  0.1028E-02  0.0000E+00  0.0000E+00  0.0000E+00  0.0000E+00  0.0000E+00
     -4.145  0.4229E-01  0.6092E-03  0.1417E-03  0.1710E-02  0.0000E+00  0.0000E+00  0.0000E+00  0.0000E+00  0.0000E+00
     -3.812  0.1967E-01  0.3531E-03  0.9988E-04  0.7825E-03  0.0000E+00  0.0000E+00  0.0000E+00  0.0000E+00  0.0000E+00
     -3.478  0.2805E-01  0.3933E-03  0.1769E-03  0.1150E-02  0.0000E+00  0.0000E+00  0.0000E+00  0.0000E+00  0.0000E+00
     -3.145  0.1626E-01  0.3441E-03  0.1021E-03  0.6234E-03  0.0000E+00  0.0000E+00  0.0000E+00  0.0000E+00  0.0000E+00
     -2.812  0.5090E-01  0.1078E-02  0.2428E-03  0.2113E-02  0.0000E+00  0.0000E+00  0.0000E+00  0.0000E+00  0.0000E+00
     -2.478  0.2031E-01  0.1696E-03  0.1447E-04  0.9007E-03  0.0000E+00  0.0000E+00  0.0000E+00  0.0000E+00  0.0000E+00
     -2.145  0.4755E-01  0.9974E-03  0.1579E-03  0.2016E-02  0.0000E+00  0.0000E+00  0.0000E+00  0.0000E+00  0.0000E+00
     -1.811  0.3601E-01  0.4393E-03  0.2575E-03  0.1501E-02  0.0000E+00  0.0000E+00  0.0000E+00  0.0000E+00  0.0000E+00
     -1.478  0.2872E-01  0.5913E-03  0.2277E-03  0.1209E-02  0.0000E+00  0.0000E+00  0.0000E+00  0.0000E+00  0.0000E+00
     -1.144  0.3086E-01  0.5787E-03  0.1079E-03  0.1285E-02  0.0000E+00  0.0000E+00  0.0000E+00  0.0000E+00  0.0000E+00
     -0.811  0.3905E-01  0.9970E-03  0.1641E-03  0.1698E-02  0.0000E+00  0.0000E+00  0.0000E+00  0.0000E+00  0.0000E+00
     -0.477  0.4660E-01  0.9011E-03  0.2045E-03  0.1800E-02  0.0000E+00  0.0000E+00  0.0000E+00  0.0000E+00  0.0000E+00
     -0.144  0.4828E-01  0.1053E-02  0.3707E-03  0.1762E-02  0.0000E+00  0.0000E+00  0.0000E+00  0.0000E+00  0.0000E+00
      0.190  0.4317E-01  0.6351E-03  0.7950E-04  0.1484E-02  0.0000E+00  0.0000E+00  0.0000E+00  0.0000E+00  0.0000E+00
      0.523  0.3905E-01  0.6847E-03  0.3358E-03  0.1360E-02  0.0000E+00  0.0000E+00  0.0000E+00  0.0000E+00  0.0000E+00
      0.856  0.4967E-01  0.8455E-03  0.2568E-03  0.1462E-02  0.0000E+00  0.0000E+00  0.0000E+00  0.0000E+00  0.0000E+00
      1.190  0.5186E-01  0.1177E-02  0.8334E-04  0.1493E-02  0.0000E+00  0.0000E+00  0.0000E+00  0.0000E+00  0.0000E+00
      1.523  0.5582E-01  0.1179E-02  0.4361E-03  0.1740E-02  0.0000E+00  0.0000E+00  0.0000E+00  0.0000E+00  0.0000E+00
      1.857  0.6045E-01  0.1650E-02  0.4786E-03  0.2110E-02  0.0000E+00  0.0000E+00  0.0000E+00  0.0000E+00  0.0000E+00
      2.190  0.4948E-01  0.1077E-02  0.2134E-03  0.1215E-02  0.0000E+00  0.0000E+00  0.0000E+00  0.0000E+00  0.0000E+00
      2.524  0.4006E-01  0.9483E-03  0.2661E-03  0.1094E-02  0.0000E+00  0.0000E+00  0.0000E+00  0.0000E+00  0.0000E+00
      2.857  0.4154E-01  0.8495E-03  0.3457E-03  0.9607E-03  0.0000E+00  0.0000E+00  0.0000E+00  0.0000E+00  0.0000E+00
      3.191  0.3808E-01  0.1306E-02  0.3814E-03  0.1361E-02  0.0000E+00  0.0000E+00  0.0000E+00  0.0000E+00  0.0000E+00
      3.524  0.5699E-01  0.1713E-02  0.3817E-03  0.1569E-02  0.0000E+00  0.0000E+00  0.0000E+00  0.0000E+00  0.0000E+00
      3.858  0.7696E-01  0.2323E-02  0.6191E-03  0.2050E-02  0.0000E+00  0.0000E+00  0.0000E+00  0.0000E+00  0.0000E+00
      4.191  0.3494E-01  0.1132E-02  0.3846E-03  0.1184E-02  0.0000E+00  0.0000E+00  0.0000E+00  0.0000E+00  0.0000E+00
      4.525  0.2038E-01  0.6357E-03  0.1506E-03  0.4951E-03  0.0000E+00  0.0000E+00  0.0000E+00  0.0000E+00  0.0000E+00
      4.858  0.5471E-01  0.1680E-02  0.5565E-03  0.1144E-02  0.0000E+00  0.0000E+00  0.0000E+00  0.0000E+00  0.0000E+00
      5.191  0.3436E-01  0.1165E-02  0.5915E-03  0.9630E-03  0.0000E+00  0.0000E+00  0.0000E+00  0.0000E+00  0.0000E+00
      5.525  0.6220E-01  0.2388E-02  0.3208E-03  0.1645E-02  0.0000E+00  0.0000E+00  0.0000E+00  0.0000E+00  0.0000E+00
      5.858  0.3512E-01  0.1290E-02  0.5681E-03  0.1114E-02  0.0000E+00  0.0000E+00  0.0000E+00  0.0000E+00  0.0000E+00
      6.192  0.6436E-01  0.2400E-02  0.6804E-03  0.1653E-02  0.0000E+00  0.0000E+00  0.0000E+00  0.0000E+00  0.0000E+00
      6.525  0.2621E-01  0.8571E-03  0.3212E-03  0.2951E-03  0.0000E+00  0.0000E+00  0.0000E+00  0.0000E+00  0.0000E+00
      6.859  0.3118E-01  0.1233E-02  0.3262E-03  0.7453E-03  0.0000E+00  0.0000E+00  0.0000E+00  0.0000E+00  0.0000E+00
      7.192  0.3423E-01  0.1306E-02  0.6147E-03  0.7585E-03  0.0000E+00  0.0000E+00  0.0000E+00  0.0000E+00  0.0000E+00
      7.526  0.5756E-01  0.2323E-02  0.9079E-03  0.1517E-02  0.0000E+00  0.0000E+00  0.0000E+00  0.0000E+00  0.0000E+00
      7.859  0.3637E-01  0.1353E-02  0.4350E-03  0.8338E-03  0.0000E+00  0.0000E+00  0.0000E+00  0.0000E+00  0.0000E+00
      8.193  0.6870E-01  0.2829E-02  0.9488E-03  0.1647E-02  0.0000E+00  0.0000E+00  0.0000E+00  0.0000E+00  0.0000E+00
      8.526  0.1515E-01  0.6153E-03  0.2245E-04  0.8220E-04  0.0000E+00  0.0000E+00  0.0000E+00  0.0000E+00  0.0000E+00
      8.859  0.2211E-01  0.8479E-03  0.3321E-03  0.2345E-03  0.0000E+00  0.0000E+00  0.0000E+00  0.0000E+00  0.0000E+00
      9.193  0.5079E-01  0.2045E-02  0.1003E-02  0.1036E-02  0.0000E+00  0.0000E+00  0.0000E+00  0.0000E+00  0.0000E+00
      9.526  0.4870E-01  0.2008E-02  0.1203E-02  0.1994E-02  0.0000E+00  0.0000E+00  0.0000E+00  0.0000E+00  0.0000E+00
      9.860  0.3609E-01  0.1376E-02  0.3504E-03  0.3434E-02  0.0000E+00  0.0000E+00  0.0000E+00  0.0000E+00  0.0000E+00
     10.193  0.4971E-01  0.1904E-02  0.7380E-03  0.2485E-02  0.0000E+00  0.0000E+00  0.0000E+00  0.0000E+00  0.0000E+00
     10.527  0.2566E-01  0.9237E-03  0.3552E-03  0.3758E-02  0.0000E+00  0.0000E+00  0.0000E+00  0.0000E+00  0.0000E+00
     10.860  0.1282E-01  0.4513E-03  0.1463E-03  0.1166E-02  0.0000E+00  0.0000E+00  0.0000E+00  0.0000E+00  0.0000E+00
     11.194  0.5427E-01  0.2002E-02  0.1083E-02  0.8614E-02  0.0000E+00  0.0000E+00  0.0000E+00  0.0000E+00  0.0000E+00
     11.527  0.5434E-01  0.1864E-02  0.1354E-02  0.6586E-02  0.0000E+00  0.0000E+00  0.0000E+00  0.0000E+00  0.0000E+00
     11.861  0.2581E-01  0.7821E-03  0.4672E-03  0.1156E-01  0.0000E+00  0.0000E+00  0.0000E+00  0.0000E+00  0.0000E+00
     12.194  0.4725E-01  0.1291E-02  0.7384E-03  0.1903E-02  0.0000E+00  0.0000E+00  0.0000E+00  0.0000E+00  0.0000E+00
     12.527  0.2478E-01  0.7005E-03  0.4230E-03  0.9062E-02  0.0000E+00  0.0000E+00  0.0000E+00  0.0000E+00  0.0000E+00
     12.861  0.2917E-01  0.4584E-03  0.2577E-03  0.1052E-01  0.0000E+00  0.0000E+00  0.0000E+00  0.0000E+00  0.0000E+00
     13.194  0.3622E-01  0.1258E-02  0.1069E-02  0.6289E-02  0.0000E+00  0.0000E+00  0.0000E+00  0.0000E+00  0.0000E+00
     13.528  0.4831E-01  0.1555E-02  0.1530E-02  0.5033E-02  0.0000E+00  0.0000E+00  0.0000E+00  0.0000E+00  0.0000E+00
     13.861  0.2050E-01  0.3813E-03  0.4052E-03  0.4717E-02  0.0000E+00  0.0000E+00  0.0000E+00  0.0000E+00  0.0000E+00
     14.195  0.1975E-01  0.5798E-03  0.5944E-03  0.1666E-01  0.0000E+00  0.0000E+00  0.0000E+00  0.0000E+00  0.0000E+00
     14.528  0.2102E-01  0.4305E-03  0.4687E-03  0.1116E-01  0.0000E+00  0.0000E+00  0.0000E+00  0.0000E+00  0.0000E+00
     14.862  0.1389E-01  0.1789E-03  0.2601E-03  0.7642E-02  0.0000E+00  0.0000E+00  0.0000E+00  0.0000E+00  0.0000E+00
     15.195  0.3931E-01  0.1219E-02  0.1405E-02  0.9022E-02  0.0000E+00  0.0000E+00  0.0000E+00  0.0000E+00  0.0000E+00
     15.529  0.3060E-01  0.7112E-03  0.9739E-03  0.1590E-01  0.0000E+00  0.0000E+00  0.0000E+00  0.0000E+00  0.0000E+00
     15.862  0.7774E-02  0.1354E-03  0.1032E-03  0.1319E-01  0.0000E+00  0.0000E+00  0.0000E+00  0.0000E+00  0.0000E+00
     16.195  0.3444E-01  0.8466E-03  0.1074E-02  0.1654E-01  0.0000E+00  0.0000E+00  0.0000E+00  0.0000E+00  0.0000E+00
     16.529  0.3534E-02  0.3575E-04  0.1655E-04  0.6244E-02  0.0000E+00  0.0000E+00  0.0000E+00  0.0000E+00  0.0000E+00
     16.862  0.1230E-01  0.1249E-03  0.4130E-03  0.1035E-01  0.0000E+00  0.0000E+00  0.0000E+00  0.0000E+00  0.0000E+00
     17.196  0.3788E-01  0.1019E-02  0.1298E-02  0.1625E-01  0.0000E+00  0.0000E+00  0.0000E+00  0.0000E+00  0.0000E+00
     17.529  0.1145E-01  0.2097E-03  0.2347E-03  0.1442E-01  0.0000E+00  0.0000E+00  0.0000E+00  0.0000E+00  0.0000E+00
     17.863  0.2614E-01  0.5646E-03  0.9075E-03  0.1107E-01  0.0000E+00  0.0000E+00  0.0000E+00  0.0000E+00  0.0000E+00
     18.196  0.4707E-02  0.9669E-04  0.1018E-03  0.9430E-02  0.0000E+00  0.0000E+00  0.0000E+00  0.0000E+00  0.0000E+00
     18.530  0.9833E-02  0.6207E-04  0.1750E-03  0.1706E-01  0.0000E+00  0.0000E+00  0.0000E+00  0.0000E+00  0.0000E+00
     18.863  0.2979E-01  0.4667E-03  0.7012E-03  0.2189E-01  0.0000E+00  0.0000E+00  0.0000E+00  0.0000E+00  0.0000E+00
     19.197  0.1671E-01  0.3133E-03  0.2727E-03  0.2008E-01  0.0000E+00  0.0000E+00  0.0000E+00  0.0000E+00  0.0000E+00
     19.530  0.2021E-01  0.2632E-03  0.5774E-03  0.8206E-02  0.0000E+00  0.0000E+00  0.0000E+00  0.0000E+00  0.0000E+00
     19.864  0.1520E-01  0.2470E-03  0.2295E-03  0.2020E-01  0.0000E+00  0.0000E+00  0.0000E+00  0.0000E+00  0.0000E+00
     20.197  0.1571E-01  0.1352E-03  0.2043E-03  0.2369E-01  0.0000E+00  0.0000E+00  0.0000E+00  0.0000E+00  0.0000E+00
     20.530  0.2187E-01  0.2423E-03  0.4144E-03  0.2049E-01  0.0000E+00  0.0000E+00  0.0000E+00  0.0000E+00  0.0000E+00
     20.864  0.7802E-02  0.6095E-04  0.4122E-04  0.1014E-01  0.0000E+00  0.0000E+00  0.0000E+00  0.0000E+00  0.0000E+00
     21.197  0.2413E-01  0.2484E-03  0.4122E-03  0.2271E-01  0.0000E+00  0.0000E+00  0.0000E+00  0.0000E+00  0.0000E+00
     21.531  0.1249E-01  0.1325E-03  0.9777E-04  0.2042E-01  0.0000E+00  0.0000E+00  0.0000E+00  0.0000E+00  0.0000E+00
     21.864  0.1371E-01  0.1108E-03  0.1532E-03  0.1735E-01  0.0000E+00  0.0000E+00  0.0000E+00  0.0000E+00  0.0000E+00
     22.198  0.9091E-02  0.9256E-04  0.6868E-04  0.1249E-01  0.0000E+00  0.0000E+00  0.0000E+00  0.0000E+00  0.0000E+00
     22.531  0.1610E-01  0.1344E-03  0.1022E-03  0.2100E-01  0.0000E+00  0.0000E+00  0.0000E+00  0.0000E+00  0.0000E+00
     22.865  0.2089E-01  0.1486E-03  0.6365E-04  0.3396E-01  0.0000E+00  0.0000E+00  0.0000E+00  0.0000E+00  0.0000E+00
     23.198  0.1848E-01  0.7438E-04  0.9479E-04  0.1956E-01  0.0000E+00  0.0000E+00  0.0000E+00  0.0000E+00  0.0000E+00
     23.532  0.1080E-01  0.4868E-04  0.4186E-04  0.1251E-01  0.0000E+00  0.0000E+00  0.0000E+00  0.0000E+00  0.0000E+00
     23.865  0.1712E-01  0.1216E-02  0.6113E-04  0.2696E-01  0.0000E+00  0.0000E+00  0.0000E+00  0.0000E+00  0.0000E+00
     24.198  0.1964E-01  0.1764E-02  0.1130E-03  0.3366E-01  0.0000E+00  0.0000E+00  0.0000E+00  0.0000E+00  0.0000E+00
     24.532  0.1849E-01  0.3026E-02  0.2423E-04  0.1771E-01  0.0000E+00  0.0000E+00  0.0000E+00  0.0000E+00  0.0000E+00
     24.865  0.1676E-01  0.1549E-02  0.8075E-04  0.2695E-01  0.0000E+00  0.0000E+00  0.0000E+00  0.0000E+00  0.0000E+00
     25.199  0.2093E-01  0.2338E-02  0.9349E-04  0.2220E-01  0.0000E+00  0.0000E+00  0.0000E+00  0.0000E+00  0.0000E+00
     25.532  0.1347E-01  0.1377E-02  0.9093E-04  0.1698E-01  0.0000E+00  0.0000E+00  0.0000E+00  0.0000E+00  0.0000E+00
     25.866  0.2062E-01  0.2660E-02  0.5613E-04  0.2214E-01  0.0000E+00  0.0000E+00  0.0000E+00  0.0000E+00  0.0000E+00
     26.199  0.7150E-02  0.1305E-02  0.3685E-04  0.1371E-01  0.0000E+00  0.0000E+00  0.0000E+00  0.0000E+00  0.0000E+00
     26.533  0.1384E-01  0.5472E-02  0.9020E-04  0.1583E-01  0.0000E+00  0.0000E+00  0.0000E+00  0.0000E+00  0.0000E+00
     26.866  0.2003E-01  0.4949E-02  0.1294E-03  0.2942E-01  0.0000E+00  0.0000E+00  0.0000E+00  0.0000E+00  0.0000E+00
     27.200  0.2169E-01  0.7325E-02  0.5263E-04  0.2295E-01  0.0000E+00  0.0000E+00  0.0000E+00  0.0000E+00  0.0000E+00
     27.533  0.1333E-01  0.1103E-01  0.1862E-04  0.1166E-01  0.0000E+00  0.0000E+00  0.0000E+00  0.0000E+00  0.0000E+00
     27.866  0.9607E-02  0.1009E-01  0.2938E-04  0.1029E-01  0.0000E+00  0.0000E+00  0.0000E+00  0.0000E+00  0.0000E+00
     28.200  0.1303E-01  0.9625E-02  0.3875E-04  0.1557E-01  0.0000E+00  0.0000E+00  0.0000E+00  0.0000E+00  0.0000E+00
     28.533  0.2643E-01  0.4094E-02  0.7894E-04  0.3600E-01  0.0000E+00  0.0000E+00  0.0000E+00  0.0000E+00  0.0000E+00
     28.867  0.2006E-01  0.2043E-01  0.3886E-04  0.1810E-01  0.0000E+00  0.0000E+00  0.0000E+00  0.0000E+00  0.0000E+00
     29.200  0.6473E-02  0.1000E-01  0.1858E-04  0.7398E-02  0.0000E+00  0.0000E+00  0.0000E+00  0.0000E+00  0.0000E+00
     29.534  0.2071E-01  0.1861E-01  0.1269E-04  0.2501E-01  0.0000E+00  0.0000E+00  0.0000E+00  0.0000E+00  0.0000E+00
     29.867  0.1559E-01  0.4207E-02  0.3825E-04  0.1283E-01  0.0000E+00  0.0000E+00  0.0000E+00  0.0000E+00  0.0000E+00
     30.201  0.1348E-01  0.2215E-01  0.1508E-04  0.1361E-01  0.0000E+00  0.0000E+00  0.0000E+00  0.0000E+00  0.0000E+00
     30.534  0.3320E-01  0.3136E-01  0.7498E-04  0.2937E-01  0.0000E+00  0.0000E+00  0.0000E+00  0.0000E+00  0.0000E+00
     30.868  0.2467E-01  0.1287E-01  0.3494E-04  0.1980E-01  0.0000E+00  0.0000E+00  0.0000E+00  0.0000E+00  0.0000E+00
     31.201  0.9376E-02  0.1555E-01  0.6623E-05  0.1301E-01  0.0000E+00  0.0000E+00  0.0000E+00  0.0000E+00  0.0000E+00
     31.534  0.1061E-01  0.1301E-01  0.2649E-03  0.3178E-02  0.0000E+00  0.0000E+00  0.0000E+00  0.0000E+00  0.0000E+00
     31.868  0.1735E-01  0.2233E-01  0.1201E-03  0.9642E-02  0.0000E+00  0.0000E+00  0.0000E+00  0.0000E+00  0.0000E+00
     32.201  0.8888E-03  0.1196E-01  0.3376E-05  0.1234E-01  0.0000E+00  0.0000E+00  0.0000E+00  0.0000E+00  0.0000E+00
     32.535  0.1399E-01  0.1600E-01  0.1051E-03  0.1105E-01  0.0000E+00  0.0000E+00  0.0000E+00  0.0000E+00  0.0000E+00
     32.868  0.1098E-01  0.3453E-01  0.1742E-03  0.1891E-01  0.0000E+00  0.0000E+00  0.0000E+00  0.0000E+00  0.0000E+00
     33.202  0.1122E-01  0.4068E-01  0.2397E-03  0.1400E-01  0.0000E+00  0.0000E+00  0.0000E+00  0.0000E+00  0.0000E+00
     33.535  0.6700E-02  0.1021E-01  0.1458E-03  0.8837E-02  0.0000E+00  0.0000E+00  0.0000E+00  0.0000E+00  0.0000E+00
     33.869  0.7675E-02  0.1259E-01  0.1496E-05  0.1114E-01  0.0000E+00  0.0000E+00  0.0000E+00  0.0000E+00  0.0000E+00