    1    1   30    1
  0.2962939E+01  0.1436286E-09  0.1436286E-09  0.1436286E-09  0.5000000E-15
  1.000000000000000E-004
  CAR 
 jump2                                   
    1  286    4
 
  0.3742002E-15  0.3742002E-15  0.3742002E-15  0.1250000E-03
   1      -13.603396
   2       50.143293
   3       61.606846
   4       61.606846
 
  0.5000000E-01  0.3742002E-15  0.3742002E-15  0.7500000E-03
   1      -13.427192
   2       48.700746
   3       57.953536
   4       61.787901
 
  0.1000000E+00  0.3742002E-15  0.3742002E-15  0.7500000E-03
   1      -12.899256
   2       44.422004
   3       56.459767
   4       62.330830
 
  0.1500000E+00  0.3742002E-15  0.3742002E-15  0.7500000E-03
   1      -12.025619
   2       38.898400
   3       56.655379
   4       63.233367
 
  0.2000000E+00  0.3742002E-15  0.3742002E-15  0.7500000E-03
   1      -10.804442
   2       33.323490
   3       57.555599
   4       64.496628
 
  0.2500000E+00  0.3742002E-15  0.3742002E-15  0.7500000E-03
   1       -9.247195
   2       27.962932
   3       58.885568
   4       66.116117
 
  0.3000000E+00  0.3742002E-15  0.3742002E-15  0.7500000E-03
   1       -7.371061
   2       22.929505
   3       60.532440
   4       68.085317
 
  0.3500000E+00  0.3742002E-15  0.3742002E-15  0.7500000E-03
   1       -5.221324
   2       18.288614
   3       62.355970
   4       70.376650
 
  0.4000000E+00  0.3742002E-15  0.3742002E-15  0.7500000E-03
   1       -2.880158
   2       14.173012
   3       64.259372
   4       72.970187
 
  0.4500000E+00  0.3742002E-15  0.3742002E-15  0.7500000E-03
   1       -0.668817
   2       10.872755
   3       65.825427
   4       75.674589
 
  0.5000000E+00  0.3742002E-15  0.3742002E-15  0.3750000E-03
   1        0.431565
   2        9.416068
   3       66.491000
   4       77.339279
 
  0.5000000E-01  0.5000000E-01  0.3742002E-15  0.1500000E-02
   1      -13.251010
   2       47.828519
   3       55.597684
   4       60.425306
 
  0.1000000E+00  0.5000000E-01  0.3742002E-15  0.3000000E-02
   1      -12.723138
   2       44.312642
   3       53.623879
   4       60.723138
 
  0.1500000E+00  0.5000000E-01  0.3742002E-15  0.3000000E-02
   1      -11.848140
   2       39.008182
   3       53.689866
   4       61.559874
 
  0.2000000E+00  0.5000000E-01  0.3742002E-15  0.3000000E-02
   1      -10.630206
   2       33.467103
   3       54.586790
   4       62.773484
 
  0.2500000E+00  0.5000000E-01  0.3742002E-15  0.3000000E-02
   1       -9.073387
   2       28.123614
   3       55.965139
   4       64.339737
 
  0.3000000E+00  0.5000000E-01  0.3742002E-15  0.3000000E-02
   1       -7.197872
   2       23.097629
   3       57.693238
   4       66.237580
 
  0.3500000E+00  0.5000000E-01  0.3742002E-15  0.3000000E-02
   1       -5.045195
   2       18.465450
   3       59.669828
   4       68.423435
 
  0.4000000E+00  0.5000000E-01  0.3742002E-15  0.3000000E-02
   1       -2.704728
   2       14.352133
   3       61.765756
   4       70.844718
 
  0.4500000E+00  0.5000000E-01  0.3742002E-15  0.3000000E-02
   1       -0.489528
   2       11.059249
   3       63.598724
   4       73.286808
 
  0.5000000E+00  0.5000000E-01  0.3742002E-15  0.1500000E-02
   1        0.601540
   2        9.597828
   3       64.402962
   4       75.308667
 
  0.1000000E+00  0.1000000E+00  0.3742002E-15  0.1500000E-02
   1      -12.198510
   2       43.166841
   3       49.421250
   4       60.846485
 
  0.1500000E+00  0.1000000E+00  0.3742002E-15  0.3000000E-02
   1      -11.322601
   2       39.159707
   3       48.256986
   4       61.622584
 
  0.2000000E+00  0.1000000E+00  0.3742002E-15  0.3000000E-02
   1      -10.103742
   2       33.881856
   3       48.946475
   4       62.792719
 
  0.2500000E+00  0.1000000E+00  0.3742002E-15  0.3000000E-02
   1       -8.545038
   2       28.608652
   3       50.304512
   4       64.313212
 
  0.3000000E+00  0.1000000E+00  0.3742002E-15  0.3000000E-02
   1       -6.670780
   2       23.608523
   3       52.075634
   4       66.128991
 
  0.3500000E+00  0.1000000E+00  0.3742002E-15  0.3000000E-02
   1       -4.520078
   2       18.989052
   3       54.153586
   4       68.137119
 
  0.4000000E+00  0.1000000E+00  0.3742002E-15  0.3000000E-02
   1       -2.186506
   2       14.875820
   3       56.412796
   4       69.968692
 
  0.4500000E+00  0.1000000E+00  0.3742002E-15  0.3000000E-02
   1        0.026568
   2       11.598658
   3       58.536715
   4       69.683645
 
  0.5000000E+00  0.1000000E+00  0.3742002E-15  0.1500000E-02
   1        1.133674
   2       10.147336
   3       59.572767
   4       68.660415
 
  0.1500000E+00  0.1500000E+00  0.3742002E-15  0.1500000E-02
   1      -10.447408
   2       38.319249
   3       43.943501
   4       62.370741
 
  0.2000000E+00  0.1500000E+00  0.3742002E-15  0.3000000E-02
   1       -9.224784
   2       34.415255
   3       43.309704
   4       63.516935
 
  0.2500000E+00  0.1500000E+00  0.3742002E-15  0.3000000E-02
   1       -7.671956
   2       29.375509
   3       44.439601
   4       64.982839
 
  0.3000000E+00  0.1500000E+00  0.3742002E-15  0.3000000E-02
   1       -5.800061
   2       24.445017
   3       46.169046
   4       66.675129
 
  0.3500000E+00  0.1500000E+00  0.3742002E-15  0.3000000E-02
   1       -3.655856
   2       19.845174
   3       48.261166
   4       68.069408
 
  0.4000000E+00  0.1500000E+00  0.3742002E-15  0.3000000E-02
   1       -1.325855
   2       15.758432
   3       50.589768
   4       66.659075
 
  0.4500000E+00  0.1500000E+00  0.3742002E-15  0.3000000E-02
   1        0.876997
   2       12.496615
   3       52.841320
   4       63.729529
 
  0.5000000E+00  0.1500000E+00  0.3742002E-15  0.1500000E-02
   1        1.974905
   2       11.055456
   3       53.990099
   4       62.290125
 
  0.2000000E+00  0.2000000E+00  0.3742002E-15  0.1500000E-02
   1       -8.010251
   2       33.944217
   3       39.202041
   4       64.614778
 
  0.2500000E+00  0.2000000E+00  0.3742002E-15  0.3000000E-02
   1       -6.458112
   2       30.272043
   3       38.987063
   4       65.964564
 
  0.3000000E+00  0.2000000E+00  0.3742002E-15  0.3000000E-02
   1       -4.591801
   2       25.568019
   3       40.496464
   4       67.018838
 
  0.3500000E+00  0.2000000E+00  0.3742002E-15  0.3000000E-02
   1       -2.449829
   2       21.042800
   3       42.548841
   4       64.954877
 
  0.4000000E+00  0.2000000E+00  0.3742002E-15  0.3000000E-02
   1       -0.133782
   2       16.985955
   3       44.888871
   4       61.153552
 
  0.4500000E+00  0.2000000E+00  0.3742002E-15  0.3000000E-02
   1        2.062750
   2       13.750900
   3       47.202406
   4       57.836633
 
  0.5000000E+00  0.2000000E+00  0.3742002E-15  0.1500000E-02
   1        3.141648
   2       12.326044
   3       48.444546
   4       56.279610
 
  0.2500000E+00  0.2500000E+00  0.3742002E-15  0.1500000E-02
   1       -4.909694
   2       30.194971
   3       35.188786
   4       66.666464
 
  0.3000000E+00  0.2500000E+00  0.3742002E-15  0.3000000E-02
   1       -3.051489
   2       26.817744
   3       35.374255
   4       64.147738
 
  0.3500000E+00  0.2500000E+00  0.3742002E-15  0.3000000E-02
   1       -0.916038
   2       22.530054
   3       37.226185
   4       59.821200
 
  0.4000000E+00  0.2500000E+00  0.3742002E-15  0.3000000E-02
   1        1.392073
   2       18.544404
   3       39.521403
   4       55.678124
 
  0.4500000E+00  0.2500000E+00  0.3742002E-15  0.3000000E-02
   1        3.552593
   2       15.355727
   3       41.857605
   4       52.249232
 
  0.5000000E+00  0.2500000E+00  0.3742002E-15  0.1500000E-02
   1        4.605260
   2       13.957561
   3       43.110355
   4       50.632085
 
  0.3000000E+00  0.3000000E+00  0.3742002E-15  0.1500000E-02
   1       -1.198311
   2       27.135593
   3       31.902433
   4       59.378207
 
  0.3500000E+00  0.3000000E+00  0.3742002E-15  0.3000000E-02
   1        0.931321
   2       24.161094
   3       32.458925
   4       54.744722
 
  0.4000000E+00  0.3000000E+00  0.3742002E-15  0.3000000E-02
   1        3.208852
   2       20.404174
   3       34.585681
   4       50.528669
 
  0.4500000E+00  0.3000000E+00  0.3742002E-15  0.3000000E-02
   1        5.332495
   2       17.304187
   3       36.916139
   4       47.031203
 
  0.5000000E+00  0.3000000E+00  0.3742002E-15  0.1500000E-02
   1        6.355246
   2       15.947885
   3       38.207602
   4       45.357616
 
  0.3500000E+00  0.3500000E+00  0.3742002E-15  0.1500000E-02
   1        3.034236
   2       24.911046
   3       29.347894
   4       50.026948
 
  0.4000000E+00  0.3500000E+00  0.3742002E-15  0.3000000E-02
   1        5.278827
   2       22.440836
   3       30.246812
   4       45.761075
 
  0.4500000E+00  0.3500000E+00  0.3742002E-15  0.3000000E-02
   1        7.339287
   2       19.570699
   3       32.453799
   4       42.199175
 
  0.5000000E+00  0.3500000E+00  0.3742002E-15  0.1500000E-02
   1        8.316698
   2       18.290624
   3       33.777049
   4       40.460208
 
  0.4000000E+00  0.4000000E+00  0.3742002E-15  0.1500000E-02
   1        7.472256
   2       23.710054
   3       27.523167
   4       41.444342
 
  0.4500000E+00  0.4000000E+00  0.3742002E-15  0.3000000E-02
   1        9.443769
   2       22.071182
   3       28.665615
   4       37.799586
 
  0.5000000E+00  0.4000000E+00  0.3742002E-15  0.1500000E-02
   1       10.343799
   2       20.967655
   3       29.979573
   4       35.958320
 
  0.4500000E+00  0.4500000E+00  0.3742002E-15  0.1500000E-02
   1       11.289390
   2       24.116811
   3       26.428316
   4       33.998909
 
  0.5000000E+00  0.4500000E+00  0.3742002E-15  0.1500000E-02
   1       12.087733
   2       23.895952
   3       27.171588
   4       31.935158
 
  0.5000000E+00  0.5000000E+00  0.3742002E-15  0.3750000E-03
   1       12.880711
   2       26.063364
   3       26.063364
   4       29.409042
 
  0.5000000E-01  0.5000000E-01  0.5000000E-01  0.1000000E-02
   1      -13.074848
   2       47.183253
   3       55.779056
   4       55.779056
 
  0.1000000E+00  0.5000000E-01  0.5000000E-01  0.3000000E-02
   1      -12.547043
   2       44.201101
   3       52.948808
   4       56.323000
 
  0.1500000E+00  0.5000000E-01  0.5000000E-01  0.3000000E-02
   1      -11.670691
   2       39.115738
   3       52.727272
   4       57.228213
 
  0.2000000E+00  0.5000000E-01  0.5000000E-01  0.3000000E-02
   1      -10.455997
   2       33.610082
   3       53.533380
   4       58.487620
 
  0.2500000E+00  0.5000000E-01  0.5000000E-01  0.3000000E-02
   1       -8.899607
   2       28.284069
   3       54.873417
   4       60.112360
 
  0.3000000E+00  0.5000000E-01  0.5000000E-01  0.3000000E-02
   1       -7.024714
   2       23.265650
   3       56.578183
   4       62.090806
 
  0.3500000E+00  0.5000000E-01  0.5000000E-01  0.3000000E-02
   1       -4.869088
   2       18.642255
   3       58.547907
   4       64.411971
 
  0.4000000E+00  0.5000000E-01  0.5000000E-01  0.3000000E-02
   1       -2.531150
   2       14.527104
   3       60.623590
   4       67.044244
 
  0.4500000E+00  0.5000000E-01  0.5000000E-01  0.3000000E-02
   1       -0.317916
   2       11.237343
   3       62.450697
   4       69.849939
 
  0.5000000E+00  0.5000000E-01  0.5000000E-01  0.1500000E-02
   1        0.771468
   2        9.779587
   3       63.252640
   4       71.704025
 
  0.1000000E+00  0.1000000E+00  0.5000000E-01  0.3000000E-02
   1      -12.022485
   2       43.106167
   3       49.602638
   4       55.415598
 
  0.1500000E+00  0.1000000E+00  0.5000000E-01  0.6000000E-02
   1      -11.145215
   2       39.259488
   3       48.332248
   4       56.123972
 
  0.2000000E+00  0.1000000E+00  0.5000000E-01  0.6000000E-02
   1       -9.929613
   2       34.022667
   3       48.957279
   4       57.306222
 
  0.2500000E+00  0.1000000E+00  0.5000000E-01  0.6000000E-02
   1       -8.371345
   2       28.768400
   3       50.285443
   4       58.878564
 
  0.3000000E+00  0.1000000E+00  0.5000000E-01  0.6000000E-02
   1       -6.497718
   2       23.776241
   3       52.033998
   4       60.797132
 
  0.3500000E+00  0.1000000E+00  0.5000000E-01  0.6000000E-02
   1       -4.345424
   2       19.161012
   3       54.088326
   4       63.030866
 
  0.4000000E+00  0.1000000E+00  0.5000000E-01  0.6000000E-02
   1       -2.009472
   2       15.058777
   3       56.319291
   4       65.507904
 
  0.4500000E+00  0.1000000E+00  0.5000000E-01  0.6000000E-02
   1        0.200742
   2       11.779635
   3       58.382411
   4       67.937081
 
  0.5000000E+00  0.1000000E+00  0.5000000E-01  0.3000000E-02
   1        1.301857
   2       10.327218
   3       59.369848
   4       68.826564
 
  0.1500000E+00  0.1500000E+00  0.5000000E-01  0.3000000E-02
   1      -10.268644
   2       38.427500
   3       44.131092
   4       56.736768
 
  0.2000000E+00  0.1500000E+00  0.5000000E-01  0.6000000E-02
   1       -9.050908
   2       34.551513
   3       43.450920
   4       57.884490
 
  0.2500000E+00  0.1500000E+00  0.5000000E-01  0.6000000E-02
   1       -7.500149
   2       29.531776
   3       44.559047
   4       59.405320
 
  0.3000000E+00  0.1500000E+00  0.5000000E-01  0.6000000E-02
   1       -5.628956
   2       24.610958
   3       46.276670
   4       61.270076
 
  0.3500000E+00  0.1500000E+00  0.5000000E-01  0.6000000E-02
   1       -3.480557
   2       20.025379
   3       48.362627
   4       63.382776
 
  0.4000000E+00  0.1500000E+00  0.5000000E-01  0.6000000E-02
   1       -1.150732
   2       15.937355
   3       50.689529
   4       65.227495
 
  0.4500000E+00  0.1500000E+00  0.5000000E-01  0.6000000E-02
   1        1.055972
   2       12.677616
   3       52.919931
   4       63.808171
 
  0.5000000E+00  0.1500000E+00  0.5000000E-01  0.3000000E-02
   1        2.152009
   2       11.237458
   3       54.050667
   4       62.468261
 
  0.2000000E+00  0.2000000E+00  0.5000000E-01  0.3000000E-02
   1       -7.834890
   2       34.081404
   3       39.383392
   4       59.004861
 
  0.2500000E+00  0.2000000E+00  0.5000000E-01  0.6000000E-02
   1       -6.284819
   2       30.426625
   3       39.154651
   4       60.489209
 
  0.3000000E+00  0.2000000E+00  0.5000000E-01  0.6000000E-02
   1       -4.420430
   2       25.728029
   3       40.653728
   4       62.253288
 
  0.3500000E+00  0.2000000E+00  0.5000000E-01  0.6000000E-02
   1       -2.274876
   2       21.219781
   3       42.714246
   4       63.650948
 
  0.4000000E+00  0.2000000E+00  0.5000000E-01  0.6000000E-02
   1        0.048234
   2       17.165180
   3       45.049708
   4       61.215368
 
  0.4500000E+00  0.2000000E+00  0.5000000E-01  0.6000000E-02
   1        2.231355
   2       13.931163
   3       47.341867
   4       57.991216
 
  0.5000000E+00  0.2000000E+00  0.5000000E-01  0.3000000E-02
   1        3.313107
   2       12.507917
   3       48.544945
   4       56.458596
 
  0.2500000E+00  0.2500000E+00  0.5000000E-01  0.3000000E-02
   1       -4.738585
   2       30.342989
   3       35.369458
   4       61.878463
 
  0.3000000E+00  0.2500000E+00  0.5000000E-01  0.6000000E-02
   1       -2.881222
   2       26.981778
   3       35.541914
   4       62.875230
 
  0.3500000E+00  0.2500000E+00  0.5000000E-01  0.6000000E-02
   1       -0.741360
   2       22.698262
   3       37.388442
   4       59.867611
 
  0.4000000E+00  0.2500000E+00  0.5000000E-01  0.6000000E-02
   1        1.562698
   2       18.724149
   3       39.691855
   4       55.836951
 
  0.4500000E+00  0.2500000E+00  0.5000000E-01  0.6000000E-02
   1        3.731829
   2       15.537375
   3       42.027283
   4       52.427118
 
  0.5000000E+00  0.2500000E+00  0.5000000E-01  0.3000000E-02
   1        4.781497
   2       14.139553
   3       43.265853
   4       50.813333
 
  0.3000000E+00  0.3000000E+00  0.5000000E-01  0.3000000E-02
   1       -1.021043
   2       27.305478
   3       32.084209
   4       59.450210
 
  0.3500000E+00  0.3000000E+00  0.5000000E-01  0.6000000E-02
   1        1.094097
   2       24.327698
   3       32.632449
   4       54.891164
 
  0.4000000E+00  0.3000000E+00  0.5000000E-01  0.6000000E-02
   1        3.380234
   2       20.581472
   3       34.755190
   4       50.697086
 
  0.4500000E+00  0.3000000E+00  0.5000000E-01  0.6000000E-02
   1        5.508921
   2       17.484981
   3       37.085840
   4       47.208576
 
  0.5000000E+00  0.3000000E+00  0.5000000E-01  0.3000000E-02
   1        6.530800
   2       16.129868
   3       38.374103
   4       45.539198
 
  0.3500000E+00  0.3500000E+00  0.5000000E-01  0.3000000E-02
   1        3.200972
   2       25.074591
   3       29.528517
   4       50.192614
 
  0.4000000E+00  0.3500000E+00  0.5000000E-01  0.6000000E-02
   1        5.447140
   2       22.613107
   3       30.422236
   4       45.934340
 
  0.4500000E+00  0.3500000E+00  0.5000000E-01  0.6000000E-02
   1        7.511639
   2       19.751089
   3       32.625752
   4       42.378119
 
  0.5000000E+00  0.3500000E+00  0.5000000E-01  0.3000000E-02
   1        8.491233
   2       18.472589
   3       33.949394
   4       40.641960
 
  0.4000000E+00  0.4000000E+00  0.5000000E-01  0.3000000E-02
   1        7.638192
   2       23.880337
   3       27.703776
   4       41.620935
 
  0.4500000E+00  0.4000000E+00  0.5000000E-01  0.6000000E-02
   1        9.606046
   2       22.248630
   3       28.841760
   4       37.978954
 
  0.5000000E+00  0.4000000E+00  0.5000000E-01  0.3000000E-02
   1       10.509126
   2       21.149444
   3       30.151591
   4       36.139966
 
  0.4500000E+00  0.4500000E+00  0.5000000E-01  0.3000000E-02
   1       11.443862
   2       24.292456
   3       26.608916
   4       34.178770
 
  0.5000000E+00  0.4500000E+00  0.5000000E-01  0.3000000E-02
   1       12.248800
   2       24.077620
   3       27.348795
   4       32.116950
 
  0.5000000E+00  0.5000000E+00  0.5000000E-01  0.7500000E-03
   1       13.017881
   2       26.243961
   3       26.243961
   4       29.591238
 
  0.1000000E+00  0.1000000E+00  0.1000000E+00  0.1000000E-02
   1      -11.501264
   2       42.394334
   3       50.139249
   4       50.139249
 
  0.1500000E+00  0.1000000E+00  0.1000000E+00  0.3000000E-02
   1      -10.623089
   2       39.368694
   3       47.835220
   4       51.044897
 
  0.2000000E+00  0.1000000E+00  0.1000000E+00  0.3000000E-02
   1       -9.394665
   2       34.455060
   3       48.115715
   4       52.315431
 
  0.2500000E+00  0.1000000E+00  0.1000000E+00  0.3000000E-02
   1       -7.843298
   2       29.250593
   3       49.316735
   4       53.940357
 
  0.3000000E+00  0.1000000E+00  0.1000000E+00  0.3000000E-02
   1       -5.970958
   2       24.285981
   3       50.992277
   4       55.919529
 
  0.3500000E+00  0.1000000E+00  0.1000000E+00  0.3000000E-02
   1       -3.820765
   2       19.683758
   3       52.979712
   4       58.242120
 
  0.4000000E+00  0.1000000E+00  0.1000000E+00  0.3000000E-02
   1       -1.488124
   2       15.590236
   3       55.128563
   4       60.877431
 
  0.4500000E+00  0.1000000E+00  0.1000000E+00  0.3000000E-02
   1        0.718925
   2       12.316415
   3       57.077437
   4       63.691040
 
  0.5000000E+00  0.1000000E+00  0.1000000E+00  0.1500000E-02
   1        1.808624
   2       10.872303
   3       57.977760
   4       65.562482
 
  0.1500000E+00  0.1500000E+00  0.1000000E+00  0.3000000E-02
   1       -9.745599
   2       38.583433
   3       44.674060
   4       50.552951
 
  0.2000000E+00  0.1500000E+00  0.1000000E+00  0.6000000E-02
   1       -8.524161
   2       34.944736
   3       43.842545
   4       51.620490
 
  0.2500000E+00  0.1500000E+00  0.1000000E+00  0.6000000E-02
   1       -6.974395
   2       30.007021
   3       44.861049
   4       53.160385
 
  0.3000000E+00  0.1500000E+00  0.1000000E+00  0.6000000E-02
   1       -5.105820
   2       25.111944
   3       46.528904
   4       55.069709
 
  0.3500000E+00  0.1500000E+00  0.1000000E+00  0.6000000E-02
   1       -2.958456
   2       20.546467
   3       48.573497
   4       57.306631
 
  0.4000000E+00  0.1500000E+00  0.1000000E+00  0.6000000E-02
   1       -0.625212
   2       16.472193
   3       50.840260
   4       59.805412
 
  0.4500000E+00  0.1500000E+00  0.1000000E+00  0.6000000E-02
   1        1.568532
   2       13.217026
   3       52.972477
   4       62.254075
 
  0.5000000E+00  0.1500000E+00  0.1000000E+00  0.3000000E-02
   1        2.649315
   2       11.780499
   3       54.031567
   4       62.992582
 
  0.2000000E+00  0.2000000E+00  0.1000000E+00  0.3000000E-02
   1       -7.307139
   2       34.474082
   3       39.932853
   4       52.590440
 
  0.2500000E+00  0.2000000E+00  0.1000000E+00  0.6000000E-02
   1       -5.758068
   2       30.893320
   3       39.653063
   4       54.077930
 
  0.3000000E+00  0.2000000E+00  0.1000000E+00  0.6000000E-02
   1       -3.895199
   2       26.231924
   3       41.119691
   4       55.930205
 
  0.3500000E+00  0.2000000E+00  0.1000000E+00  0.6000000E-02
   1       -1.748764
   2       21.739451
   3       43.147926
   4       58.057547
 
  0.4000000E+00  0.2000000E+00  0.1000000E+00  0.6000000E-02
   1        0.563794
   2       17.693975
   3       45.448915
   4       59.949944
 
  0.4500000E+00  0.2000000E+00  0.1000000E+00  0.6000000E-02
   1        2.742349
   2       14.470327
   3       47.708184
   4       58.405127
 
  0.5000000E+00  0.2000000E+00  0.1000000E+00  0.3000000E-02
   1        3.817980
   2       13.053064
   3       48.878357
   4       56.997996
 
  0.2500000E+00  0.2500000E+00  0.1000000E+00  0.3000000E-02
   1       -4.215291
   2       30.785709
   3       35.912061
   4       55.519542
 
  0.3000000E+00  0.2500000E+00  0.1000000E+00  0.6000000E-02
   1       -2.350154
   2       27.487582
   3       36.059177
   4       57.282597
 
  0.3500000E+00  0.2500000E+00  0.1000000E+00  0.6000000E-02
   1       -0.220385
   2       23.220218
   3       37.884649
   4       58.736032
 
  0.4000000E+00  0.2500000E+00  0.1000000E+00  0.6000000E-02
   1        2.078207
   2       19.253062
   3       40.171568
   4       56.218665
 
  0.4500000E+00  0.2500000E+00  0.1000000E+00  0.6000000E-02
   1        4.240051
   2       16.076254
   3       42.497073
   4       52.935040
 
  0.5000000E+00  0.2500000E+00  0.1000000E+00  0.3000000E-02
   1        5.284562
   2       14.684683
   3       43.723374
   4       51.357383
 
  0.3000000E+00  0.3000000E+00  0.1000000E+00  0.3000000E-02
   1       -0.498989
   2       27.791997
   3       32.627902
   4       58.347006
 
  0.3500000E+00  0.3000000E+00  0.1000000E+00  0.6000000E-02
   1        1.615316
   2       24.842756
   3       33.162335
   4       55.279133
 
  0.4000000E+00  0.3000000E+00  0.1000000E+00  0.6000000E-02
   1        3.898112
   2       21.110887
   3       35.273795
   4       51.198314
 
  0.4500000E+00  0.3000000E+00  0.1000000E+00  0.6000000E-02
   1        6.009142
   2       18.022515
   3       37.578075
   4       47.734582
 
  0.5000000E+00  0.3000000E+00  0.1000000E+00  0.3000000E-02
   1        7.024936
   2       16.674833
   3       38.852644
   4       46.083190
 
  0.3500000E+00  0.3500000E+00  0.1000000E+00  0.3000000E-02
   1        3.710874
   2       25.576240
   3       30.072227
   4       50.681885
 
  0.4000000E+00  0.3500000E+00  0.1000000E+00  0.6000000E-02
   1        5.953665
   2       23.134245
   3       30.951220
   4       46.452178
 
  0.4500000E+00  0.3500000E+00  0.1000000E+00  0.6000000E-02
   1        8.009997
   2       20.287857
   3       33.141772
   4       42.911840
 
  0.5000000E+00  0.3500000E+00  0.1000000E+00  0.3000000E-02
   1        8.980086
   2       19.017483
   3       34.452469
   4       41.186585
 
  0.4000000E+00  0.4000000E+00  0.1000000E+00  0.3000000E-02
   1        8.138692
   2       24.396128
   3       28.247465
   4       42.150205
 
  0.4500000E+00  0.4000000E+00  0.1000000E+00  0.6000000E-02
   1       10.097507
   2       22.783595
   3       29.373063
   4       38.516730
 
  0.5000000E+00  0.4000000E+00  0.1000000E+00  0.3000000E-02
   1       10.997817
   2       21.694344
   3       30.676131
   4       36.685213
 
  0.4500000E+00  0.4500000E+00  0.1000000E+00  0.3000000E-02
   1       11.929764
   2       24.827286
   3       27.152592
   4       34.720899
 
  0.5000000E+00  0.4500000E+00  0.1000000E+00  0.3000000E-02
   1       12.729144
   2       24.622203
   3       27.886137
   4       32.662643
 
  0.5000000E+00  0.5000000E+00  0.1000000E+00  0.7500000E-03
   1       13.493276
   2       26.787633
   3       26.787633
   4       30.137879
 
  0.1500000E+00  0.1500000E+00  0.1500000E+00  0.1000000E-02
   1       -8.868814
   2       38.197721
   3       45.579670
   4       45.579670
 
  0.2000000E+00  0.1500000E+00  0.1500000E+00  0.3000000E-02
   1       -7.651227
   2       35.403723
   3       43.696002
   4       46.846155
 
  0.2500000E+00  0.1500000E+00  0.1500000E+00  0.3000000E-02
   1       -6.103072
   2       30.755461
   3       44.342191
   4       48.471099
 
  0.3000000E+00  0.1500000E+00  0.1500000E+00  0.3000000E-02
   1       -4.237109
   2       25.941275
   3       45.867782
   4       50.450343
 
  0.3500000E+00  0.1500000E+00  0.1500000E+00  0.3000000E-02
   1       -2.088663
   2       21.409002
   3       47.817048
   4       52.773143
 
  0.4000000E+00  0.1500000E+00  0.1500000E+00  0.3000000E-02
   1        0.230866
   2       17.353275
   3       49.969403
   4       55.408979
 
  0.4500000E+00  0.1500000E+00  0.1500000E+00  0.3000000E-02
   1        2.407151
   2       14.110548
   3       51.930688
   4       58.221999
 
  0.5000000E+00  0.1500000E+00  0.1500000E+00  0.1500000E-02
   1        3.478121
   2       12.688436
   3       52.860071
   4       60.095237
 
  0.2000000E+00  0.2000000E+00  0.1500000E+00  0.3000000E-02
   1       -6.435392
   2       34.962422
   3       40.838397
   4       46.731500
 
  0.2500000E+00  0.2000000E+00  0.1500000E+00  0.6000000E-02
   1       -4.889159
   2       31.610929
   3       40.395496
   4       48.151419
 
  0.3000000E+00  0.2000000E+00  0.1500000E+00  0.6000000E-02
   1       -3.029097
   2       27.051346
   3       41.755808
   4       50.030515
 
  0.3500000E+00  0.2000000E+00  0.1500000E+00  0.6000000E-02
   1       -0.887221
   2       22.596955
   3       43.720604
   4       52.257617
 
  0.4000000E+00  0.2000000E+00  0.1500000E+00  0.6000000E-02
   1        1.420240
   2       18.577097
   3       45.957434
   4       54.740546
 
  0.4500000E+00  0.2000000E+00  0.1500000E+00  0.6000000E-02
   1        3.585445
   2       15.367096
   3       48.107615
   4       57.192722
 
  0.5000000E+00  0.2000000E+00  0.1500000E+00  0.3000000E-02
   1        4.639920
   2       13.959052
   3       49.173067
   4       57.884092
 
  0.2500000E+00  0.2500000E+00  0.1500000E+00  0.3000000E-02
   1       -3.347197
   2       31.496767
   3       36.817744
   4       49.465229
 
  0.3000000E+00  0.2500000E+00  0.1500000E+00  0.6000000E-02
   1       -1.483089
   2       28.296561
   3       36.910191
   4       51.274329
 
  0.3500000E+00  0.2500000E+00  0.1500000E+00  0.6000000E-02
   1        0.640865
   2       24.073401
   3       38.691558
   4       53.382295
 
  0.4000000E+00  0.2500000E+00  0.1500000E+00  0.6000000E-02
   1        2.932241
   2       20.130551
   3       40.944025
   4       55.298209
 
  0.4500000E+00  0.2500000E+00  0.1500000E+00  0.6000000E-02
   1        5.074150
   2       16.972369
   3       43.207717
   4       53.706002
 
  0.5000000E+00  0.2500000E+00  0.1500000E+00  0.3000000E-02
   1        6.117285
   2       15.592878
   3       44.394003
   4       52.259538
 
  0.3000000E+00  0.3000000E+00  0.1500000E+00  0.3000000E-02
   1        0.361503
   2       28.578620
   3       33.533526
   4       52.980978
 
  0.3500000E+00  0.3000000E+00  0.1500000E+00  0.6000000E-02
   1        2.472492
   2       25.689192
   3       34.030581
   4       54.462144
 
  0.4000000E+00  0.3000000E+00  0.1500000E+00  0.6000000E-02
   1        4.739942
   2       21.983996
   3       36.112322
   4       51.932666
 
  0.4500000E+00  0.3000000E+00  0.1500000E+00  0.6000000E-02
   1        6.849074
   2       18.919415
   3       38.398859
   4       48.605136
 
  0.5000000E+00  0.3000000E+00  0.1500000E+00  0.3000000E-02
   1        7.859181
   2       17.583102
   3       39.663829
   4       46.990549
 
  0.3500000E+00  0.3500000E+00  0.1500000E+00  0.3000000E-02
   1        4.566544
   2       26.418050
   3       30.978983
   4       51.429724
 
  0.4000000E+00  0.3500000E+00  0.1500000E+00  0.6000000E-02
   1        6.797106
   2       24.001790
   3       31.830725
   4       47.301796
 
  0.4500000E+00  0.3500000E+00  0.1500000E+00  0.6000000E-02
   1        8.840130
   2       21.182527
   3       33.998267
   4       43.798915
 
  0.5000000E+00  0.3500000E+00  0.1500000E+00  0.3000000E-02
   1        9.800252
   2       19.925503
   3       35.291761
   4       42.094087
 
  0.4000000E+00  0.4000000E+00  0.1500000E+00  0.3000000E-02
   1        8.972326
   2       25.255482
   3       29.153051
   4       43.029323
 
  0.4500000E+00  0.4000000E+00  0.1500000E+00  0.6000000E-02
   1       10.916554
   2       23.675463
   3       30.257902
   4       39.412726
 
  0.5000000E+00  0.4000000E+00  0.1500000E+00  0.3000000E-02
   1       11.806701
   2       22.602139
   3       31.546693
   4       37.593560
 
  0.4500000E+00  0.4500000E+00  0.1500000E+00  0.3000000E-02
   1       12.733729
   2       25.717158
   3       28.058157
   4       35.623533
 
  0.5000000E+00  0.4500000E+00  0.1500000E+00  0.3000000E-02
   1       13.523425
   2       25.529418
   3       28.780351
   4       33.571848
 
  0.5000000E+00  0.5000000E+00  0.1500000E+00  0.7500000E-03
   1       14.278957
   2       27.693191
   3       27.693191
   4       31.048818
 
  0.2000000E+00  0.2000000E+00  0.2000000E+00  0.1000000E-02
   1       -5.221389
   2       34.908983