PROCAR lm decomposed
# of k-points:  286         # of bands:   4         # of ions:   1

 k-point    1 :    0.00000000 0.00000000 0.00000000     weight = 0.00012500

band   1 # energy  -13.60339564 # occ.  2.00000000
 
ion      s     py     pz     px    dxy    dyz    dz2    dxz    dx2    tot
  1  0.412  0.000  0.000  0.000  0.000  0.000  0.000  0.000  0.000  0.412
 
band   2 # energy   50.14329285 # occ.  0.00000000
 
ion      s     py     pz     px    dxy    dyz    dz2    dxz    dx2    tot
  1  0.493  0.000  0.000  0.000  0.000  0.000  0.000  0.000  0.000  0.493
 
band   3 # energy   61.60684579 # occ.  0.00000000
 
ion      s     py     pz     px    dxy    dyz    dz2    dxz    dx2    tot
  1  0.000  0.162  0.615  0.068  0.000  0.000  0.000  0.000  0.000  0.845
 
band   4 # energy   61.60684591 # occ.  0.00000000
 
ion      s     py     pz     px    dxy    dyz    dz2    dxz    dx2    tot
  1  0.000  0.251  0.001  0.593  0.000  0.000  0.000  0.000  0.000  0.845
 

 k-point    2 :    0.05000000 0.00000000 0.00000000     weight = 0.00075000

band   1 # energy  -13.42719206 # occ.  2.00000000
 
ion      s     py     pz     px    dxy    dyz    dz2    dxz    dx2    tot
  1  0.411  0.000  0.000  0.001  0.000  0.000  0.000  0.000  0.000  0.412
 
band   2 # energy   48.70074587 # occ.  0.00000000
 
ion      s     py     pz     px    dxy    dyz    dz2    dxz    dx2    tot
  1  0.427  0.000  0.000  0.073  0.000  0.000  0.000  0.000  0.000  0.500
 
band   3 # energy   57.95353643 # occ.  0.00000000
 
ion      s     py     pz     px    dxy    dyz    dz2    dxz    dx2    tot
  1  0.058  0.000  0.000  0.375  0.000  0.000  0.000  0.000  0.000  0.433
 
band   4 # energy   61.78790145 # occ.  0.00000000
 
ion      s     py     pz     px    dxy    dyz    dz2    dxz    dx2    tot
  1  0.000  0.561  0.286  0.000  0.000  0.000  0.000  0.000  0.000  0.846
 

 k-point    3 :    0.10000000 0.00000000 0.00000000     weight = 0.00075000

band   1 # energy  -12.89925569 # occ.  2.00000000
 
ion      s     py     pz     px    dxy    dyz    dz2    dxz    dx2    tot
  1  0.411  0.000  0.000  0.003  0.000  0.000  0.000  0.000  0.000  0.413
 
band   2 # energy   44.42200411 # occ.  0.00000000
 
ion      s     py     pz     px    dxy    dyz    dz2    dxz    dx2    tot
  1  0.290  0.000  0.000  0.181  0.000  0.000  0.000  0.000  0.000  0.471
 
band   3 # energy   56.45976709 # occ.  0.00000000
 
ion      s     py     pz     px    dxy    dyz    dz2    dxz    dx2    tot
  1  0.186  0.000  0.000  0.203  0.000  0.000  0.000  0.000  0.000  0.388
 
band   4 # energy   62.33083012 # occ.  0.00000000
 
ion      s     py     pz     px    dxy    dyz    dz2    dxz    dx2    tot
  1  0.000  0.593  0.258  0.000  0.000  0.000  0.000  0.000  0.000  0.851
 

 k-point    4 :    0.15000000 0.00000000 0.00000000     weight = 0.00075000

band   1 # energy  -12.02561875 # occ.  2.00000000
 
ion      s     py     pz     px    dxy    dyz    dz2    dxz    dx2    tot
  1  0.410  0.000  0.000  0.004  0.000  0.000  0.000  0.000  0.000  0.414
 
band   2 # energy   38.89839957 # occ.  0.00000000
 
ion      s     py     pz     px    dxy    dyz    dz2    dxz    dx2    tot
  1  0.220  0.000  0.000  0.234  0.000  0.000  0.000  0.000  0.000  0.455
 
band   3 # energy   56.65537907 # occ.  0.00000000
 
ion      s     py     pz     px    dxy    dyz    dz2    dxz    dx2    tot
  1  0.252  0.000  0.000  0.130  0.000  0.000  0.000  0.000  0.000  0.382
 
band   4 # energy   63.23336691 # occ.  0.00000000
 
ion      s     py     pz     px    dxy    dyz    dz2    dxz    dx2    tot
  1  0.000  0.862  0.001  0.000  0.000  0.000  0.000  0.000  0.000  0.863
 

 k-point    5 :    0.20000000 0.00000000 0.00000000     weight = 0.00075000

band   1 # energy  -10.80444192 # occ.  2.00000000
 
ion      s     py     pz     px    dxy    dyz    dz2    dxz    dx2    tot
  1  0.409  0.000  0.000  0.008  0.000  0.000  0.000  0.000  0.000  0.417
 
band   2 # energy   33.32348980 # occ.  0.00000000
 
ion      s     py     pz     px    dxy    dyz    dz2    dxz    dx2    tot
  1  0.190  0.000  0.000  0.226  0.000  0.000  0.000  0.000  0.000  0.417
 
band   3 # energy   57.55559919 # occ.  0.00000000
 
ion      s     py     pz     px    dxy    dyz    dz2    dxz    dx2    tot
  1  0.283  0.000  0.000  0.110  0.000  0.000  0.000  0.000  0.000  0.393
 
band   4 # energy   64.49662793 # occ.  0.00000000
 
ion      s     py     pz     px    dxy    dyz    dz2    dxz    dx2    tot
  1  0.000  0.791  0.085  0.000  0.000  0.000  0.000  0.000  0.000  0.876
 

 k-point    6 :    0.25000000 0.00000000 0.00000000     weight = 0.00075000

band   1 # energy   -9.24719543 # occ.  2.00000000
 
ion      s     py     pz     px    dxy    dyz    dz2    dxz    dx2    tot
  1  0.411  0.000  0.000  0.012  0.000  0.000  0.000  0.000  0.000  0.422
 
band   2 # energy   27.96293208 # occ.  0.00000000
 
ion      s     py     pz     px    dxy    dyz    dz2    dxz    dx2    tot
  1  0.174  0.000  0.000  0.209  0.000  0.000  0.000  0.000  0.000  0.383
 
band   3 # energy   58.88556807 # occ.  0.00000000
 
ion      s     py     pz     px    dxy    dyz    dz2    dxz    dx2    tot
  1  0.301  0.000  0.000  0.105  0.000  0.000  0.000  0.000  0.000  0.406
 
band   4 # energy   66.11611659 # occ.  0.00000000
 
ion      s     py     pz     px    dxy    dyz    dz2    dxz    dx2    tot
  1  0.000  0.441  0.455  0.000  0.000  0.000  0.000  0.000  0.000  0.896
 

 k-point    7 :    0.30000000 0.00000000 0.00000000     weight = 0.00075000

band   1 # energy   -7.37106143 # occ.  2.00000000
 
ion      s     py     pz     px    dxy    dyz    dz2    dxz    dx2    tot
  1  0.415  0.000  0.000  0.017  0.000  0.000  0.000  0.000  0.000  0.432
 
band   2 # energy   22.92950522 # occ.  0.00000000
 
ion      s     py     pz     px    dxy    dyz    dz2    dxz    dx2    tot
  1  0.162  0.000  0.000  0.190  0.000  0.000  0.000  0.000  0.000  0.352
 
band   3 # energy   60.53244046 # occ.  0.00000000
 
ion      s     py     pz     px    dxy    dyz    dz2    dxz    dx2    tot
  1  0.318  0.000  0.000  0.102  0.000  0.000  0.000  0.000  0.000  0.420
 
band   4 # energy   68.08531716 # occ.  0.00000000
 
ion      s     py     pz     px    dxy    dyz    dz2    dxz    dx2    tot
  1  0.000  0.188  0.739  0.000  0.000  0.000  0.000  0.000  0.000  0.926
 

 k-point    8 :    0.35000000 0.00000000 0.00000000     weight = 0.00075000

band   1 # energy   -5.22132398 # occ.  2.00000000
 
ion      s     py     pz     px    dxy    dyz    dz2    dxz    dx2    tot
  1  0.428  0.000  0.000  0.020  0.000  0.000  0.000  0.000  0.000  0.447
 
band   2 # energy   18.28861376 # occ.  0.00000000
 
ion      s     py     pz     px    dxy    dyz    dz2    dxz    dx2    tot
  1  0.145  0.000  0.000  0.177  0.000  0.000  0.000  0.000  0.000  0.323
 
band   3 # energy   62.35597029 # occ.  0.00000000
 
ion      s     py     pz     px    dxy    dyz    dz2    dxz    dx2    tot
  1  0.338  0.000  0.000  0.089  0.000  0.000  0.000  0.000  0.000  0.428
 
band   4 # energy   70.37664976 # occ.  0.00000000
 
ion      s     py     pz     px    dxy    dyz    dz2    dxz    dx2    tot
  1  0.000  0.575  0.421  0.000  0.000  0.000  0.000  0.000  0.000  0.996
 

 k-point    9 :    0.40000000 0.00000000 0.00000000     weight = 0.00075000

band   1 # energy   -2.88015843 # occ.  2.00000000
 
ion      s     py     pz     px    dxy    dyz    dz2    dxz    dx2    tot
  1  0.456  0.000  0.000  0.020  0.000  0.000  0.000  0.000  0.000  0.476
 
band   2 # energy   14.17301201 # occ.  0.00000000
 
ion      s     py     pz     px    dxy    dyz    dz2    dxz    dx2    tot
  1  0.115  0.000  0.000  0.167  0.000  0.000  0.000  0.000  0.000  0.283
 
band   3 # energy   64.25937185 # occ.  0.00000000
 
ion      s     py     pz     px    dxy    dyz    dz2    dxz    dx2    tot
  1  0.366  0.000  0.000  0.068  0.000  0.000  0.000  0.000  0.000  0.434
 
band   4 # energy   72.97018708 # occ.  0.00000000
 
ion      s     py     pz     px    dxy    dyz    dz2    dxz    dx2    tot
  1  0.000  0.775  0.313  0.000  0.000  0.000  0.000  0.000  0.000  1.088
 

 k-point   10 :    0.45000000 0.00000000 0.00000000     weight = 0.00075000

band   1 # energy   -0.66881730 # occ.  2.00000000
 
ion      s     py     pz     px    dxy    dyz    dz2    dxz    dx2    tot
  1  0.514  0.000  0.000  0.011  0.000  0.000  0.000  0.000  0.000  0.524
 
band   2 # energy   10.87275499 # occ.  0.00000000
 
ion      s     py     pz     px    dxy    dyz    dz2    dxz    dx2    tot
  1  0.055  0.000  0.000  0.179  0.000  0.000  0.000  0.000  0.000  0.234
 
band   3 # energy   65.82542668 # occ.  0.00000000
 
ion      s     py     pz     px    dxy    dyz    dz2    dxz    dx2    tot
  1  0.401  0.000  0.000  0.024  0.000  0.000  0.000  0.000  0.000  0.425
 
band   4 # energy   75.67458922 # occ.  0.00000000
 
ion      s     py     pz     px    dxy    dyz    dz2    dxz    dx2    tot
  1  0.000  0.383  0.922  0.000  0.000  0.000  0.000  0.000  0.000  1.305
 

 k-point   11 :    0.50000000 0.00000000 0.00000000     weight = 0.00037500

band   1 # energy    0.43156496 # occ.  2.00000000
 
ion      s     py     pz     px    dxy    dyz    dz2    dxz    dx2    tot
  1  0.569  0.000  0.000  0.000  0.000  0.000  0.000  0.000  0.000  0.569
 
band   2 # energy    9.41606775 # occ.  0.00000000
 
ion      s     py     pz     px    dxy    dyz    dz2    dxz    dx2    tot
  1  0.000  0.000  0.000  0.187  0.000  0.000  0.000  0.000  0.000  0.187
 
band   3 # energy   66.49099963 # occ.  0.00000000
 
ion      s     py     pz     px    dxy    dyz    dz2    dxz    dx2    tot
  1  0.421  0.000  0.000  0.000  0.000  0.000  0.000  0.000  0.000  0.421
 
band   4 # energy   77.33927910 # occ.  0.00000000
 
ion      s     py     pz     px    dxy    dyz    dz2    dxz    dx2    tot
  1  0.000  0.494  1.150  0.000  0.000  0.000  0.000  0.000  0.000  1.644
 

 k-point   12 :    0.05000000 0.05000000 0.00000000     weight = 0.00150000

band   1 # energy  -13.25100954 # occ.  2.00000000
 
ion      s     py     pz     px    dxy    dyz    dz2    dxz    dx2    tot
  1  0.411  0.001  0.000  0.001  0.000  0.000  0.000  0.000  0.000  0.412
 
band   2 # energy   47.82851935 # occ.  0.00000000
 
ion      s     py     pz     px    dxy    dyz    dz2    dxz    dx2    tot
  1  0.416  0.044  0.000  0.044  0.000  0.000  0.000  0.000  0.000  0.503
 
band   3 # energy   55.59768437 # occ.  0.00000000
 
ion      s     py     pz     px    dxy    dyz    dz2    dxz    dx2    tot
  1  0.000  0.232  0.000  0.232  0.000  0.000  0.000  0.000  0.000  0.465
 
band   4 # energy   60.42530568 # occ.  0.00000000
 
ion      s     py     pz     px    dxy    dyz    dz2    dxz    dx2    tot
  1  0.057  0.165  0.000  0.165  0.000  0.000  0.000  0.000  0.000  0.388
 

 k-point   13 :    0.10000000 0.05000000 0.00000000     weight = 0.00300000

band   1 # energy  -12.72313843 # occ.  2.00000000
 
ion      s     py     pz     px    dxy    dyz    dz2    dxz    dx2    tot
  1  0.410  0.001  0.000  0.003  0.000  0.000  0.000  0.000  0.000  0.414
 
band   2 # energy   44.31264168 # occ.  0.00000000
 
ion      s     py     pz     px    dxy    dyz    dz2    dxz    dx2    tot
  1  0.309  0.006  0.000  0.161  0.000  0.000  0.000  0.000  0.000  0.476
 
band   3 # energy   53.62387867 # occ.  0.00000000
 
ion      s     py     pz     px    dxy    dyz    dz2    dxz    dx2    tot
  1  0.080  0.209  0.000  0.157  0.000  0.000  0.000  0.000  0.000  0.446
 
band   4 # energy   60.72313785 # occ.  0.00000000
 
ion      s     py     pz     px    dxy    dyz    dz2    dxz    dx2    tot
  1  0.073  0.222  0.000  0.058  0.000  0.000  0.000  0.000  0.000  0.353
 

 k-point   14 :    0.15000000 0.05000000 0.00000000     weight = 0.00300000

band   1 # energy  -11.84813993 # occ.  2.00000000
 
ion      s     py     pz     px    dxy    dyz    dz2    dxz    dx2    tot
  1  0.409  0.001  0.000  0.004  0.000  0.000  0.000  0.000  0.000  0.414
 
band   2 # energy   39.00818244 # occ.  0.00000000
 
ion      s     py     pz     px    dxy    dyz    dz2    dxz    dx2    tot
  1  0.228  0.000  0.000  0.223  0.000  0.000  0.000  0.000  0.000  0.451
 
band   3 # energy   53.68986554 # occ.  0.00000000
 
ion      s     py     pz     px    dxy    dyz    dz2    dxz    dx2    tot
  1  0.153  0.202  0.000  0.096  0.000  0.000  0.000  0.000  0.000  0.452
 
band   4 # energy   61.55987436 # occ.  0.00000000
 
ion      s     py     pz     px    dxy    dyz    dz2    dxz    dx2    tot
  1  0.076  0.238  0.000  0.035  0.000  0.000  0.000  0.000  0.000  0.349
 

 k-point   15 :    0.20000000 0.05000000 0.00000000     weight = 0.00300000

band   1 # energy  -10.63020595 # occ.  2.00000000
 
ion      s     py     pz     px    dxy    dyz    dz2    dxz    dx2    tot
  1  0.409  0.001  0.000  0.007  0.000  0.000  0.000  0.000  0.000  0.417
 
band   2 # energy   33.46710306 # occ.  0.00000000
 
ion      s     py     pz     px    dxy    dyz    dz2    dxz    dx2    tot
  1  0.193  0.000  0.000  0.226  0.000  0.000  0.000  0.000  0.000  0.420
 
band   3 # energy   54.58679030 # occ.  0.00000000
 
ion      s     py     pz     px    dxy    dyz    dz2    dxz    dx2    tot
  1  0.187  0.203  0.000  0.078  0.000  0.000  0.000  0.000  0.000  0.468
 
band   4 # energy   62.77348427 # occ.  0.00000000
 
ion      s     py     pz     px    dxy    dyz    dz2    dxz    dx2    tot
  1  0.077  0.252  0.000  0.028  0.000  0.000  0.000  0.000  0.000  0.356
 

 k-point   16 :    0.25000000 0.05000000 0.00000000     weight = 0.00300000

band   1 # energy   -9.07338676 # occ.  2.00000000
 
ion      s     py     pz     px    dxy    dyz    dz2    dxz    dx2    tot
  1  0.410  0.001  0.000  0.012  0.000  0.000  0.000  0.000  0.000  0.423
 
band   2 # energy   28.12361420 # occ.  0.00000000
 
ion      s     py     pz     px    dxy    dyz    dz2    dxz    dx2    tot
  1  0.176  0.000  0.000  0.210  0.000  0.000  0.000  0.000  0.000  0.386
 
band   3 # energy   55.96513913 # occ.  0.00000000
 
ion      s     py     pz     px    dxy    dyz    dz2    dxz    dx2    tot
  1  0.208  0.201  0.000  0.074  0.000  0.000  0.000  0.000  0.000  0.483
 
band   4 # energy   64.33973725 # occ.  0.00000000
 
ion      s     py     pz     px    dxy    dyz    dz2    dxz    dx2    tot
  1  0.077  0.264  0.000  0.024  0.000  0.000  0.000  0.000  0.000  0.365
 

 k-point   17 :    0.30000000 0.05000000 0.00000000     weight = 0.00300000

band   1 # energy   -7.19787162 # occ.  2.00000000
 
ion      s     py     pz     px    dxy    dyz    dz2    dxz    dx2    tot
  1  0.415  0.001  0.000  0.016  0.000  0.000  0.000  0.000  0.000  0.432
 
band   2 # energy   23.09762852 # occ.  0.00000000
 
ion      s     py     pz     px    dxy    dyz    dz2    dxz    dx2    tot
  1  0.163  0.000  0.000  0.191  0.000  0.000  0.000  0.000  0.000  0.354
 
band   3 # energy   57.69323757 # occ.  0.00000000
 
ion      s     py     pz     px    dxy    dyz    dz2    dxz    dx2    tot
  1  0.225  0.201  0.000  0.074  0.000  0.000  0.000  0.000  0.000  0.499
 
band   4 # energy   66.23757973 # occ.  0.00000000
 
ion      s     py     pz     px    dxy    dyz    dz2    dxz    dx2    tot
  1  0.077  0.280  0.000  0.021  0.000  0.000  0.000  0.000  0.000  0.378
 

 k-point   18 :    0.35000000 0.05000000 0.00000000     weight = 0.00300000

band   1 # energy   -5.04519499 # occ.  2.00000000
 
ion      s     py     pz     px    dxy    dyz    dz2    dxz    dx2    tot
  1  0.428  0.001  0.000  0.020  0.000  0.000  0.000  0.000  0.000  0.448
 
band   2 # energy   18.46544961 # occ.  0.00000000
 
ion      s     py     pz     px    dxy    dyz    dz2    dxz    dx2    tot
  1  0.146  0.000  0.000  0.177  0.000  0.000  0.000  0.000  0.000  0.323
 
band   3 # energy   59.66982788 # occ.  0.00000000
 
ion      s     py     pz     px    dxy    dyz    dz2    dxz    dx2    tot
  1  0.246  0.201  0.000  0.070  0.000  0.000  0.000  0.000  0.000  0.516
 
band   4 # energy   68.42343544 # occ.  0.00000000
 
ion      s     py     pz     px    dxy    dyz    dz2    dxz    dx2    tot
  1  0.078  0.303  0.000  0.014  0.000  0.000  0.000  0.000  0.000  0.395
 

 k-point   19 :    0.40000000 0.05000000 0.00000000     weight = 0.00300000

band   1 # energy   -2.70472762 # occ.  2.00000000
 
ion      s     py     pz     px    dxy    dyz    dz2    dxz    dx2    tot
  1  0.456  0.001  0.000  0.021  0.000  0.000  0.000  0.000  0.000  0.477
 
band   2 # energy   14.35213281 # occ.  0.00000000
 
ion      s     py     pz     px    dxy    dyz    dz2    dxz    dx2    tot
  1  0.115  0.000  0.000  0.167  0.000  0.000  0.000  0.000  0.000  0.283
 
band   3 # energy   61.76575589 # occ.  0.00000000
 
ion      s     py     pz     px    dxy    dyz    dz2    dxz    dx2    tot
  1  0.277  0.202  0.000  0.057  0.000  0.000  0.000  0.000  0.000  0.536
 
band   4 # energy   70.84471784 # occ.  0.00000000
 
ion      s     py     pz     px    dxy    dyz    dz2    dxz    dx2    tot
  1  0.078  0.338  0.000  0.004  0.000  0.000  0.000  0.000  0.000  0.420
 

 k-point   20 :    0.45000000 0.05000000 0.00000000     weight = 0.00300000

band   1 # energy   -0.48952805 # occ.  2.00000000
 
ion      s     py     pz     px    dxy    dyz    dz2    dxz    dx2    tot
  1  0.514  0.001  0.000  0.012  0.000  0.000  0.000  0.000  0.000  0.526
 
band   2 # energy   11.05924856 # occ.  0.00000000
 
ion      s     py     pz     px    dxy    dyz    dz2    dxz    dx2    tot
  1  0.056  0.000  0.000  0.174  0.000  0.000  0.000  0.000  0.000  0.230
 
band   3 # energy   63.59872386 # occ.  0.00000000
 
ion      s     py     pz     px    dxy    dyz    dz2    dxz    dx2    tot
  1  0.320  0.212  0.000  0.025  0.000  0.000  0.000  0.000  0.000  0.557
 
band   4 # energy   73.28680834 # occ.  0.00000000
 
ion      s     py     pz     px    dxy    dyz    dz2    dxz    dx2    tot
  1  0.071  0.379  0.000  0.006  0.000  0.000  0.000  0.000  0.000  0.457
 

 k-point   21 :    0.50000000 0.05000000 0.00000000     weight = 0.00150000

band   1 # energy    0.60153975 # occ.  2.00000000
 
ion      s     py     pz     px    dxy    dyz    dz2    dxz    dx2    tot
  1  0.569  0.001  0.000  0.000  0.000  0.000  0.000  0.000  0.000  0.570
 
band   2 # energy    9.59782778 # occ.  0.00000000
 
ion      s     py     pz     px    dxy    dyz    dz2    dxz    dx2    tot
  1  0.000  0.000  0.000  0.187  0.000  0.000  0.000  0.000  0.000  0.187
 
band   3 # energy   64.40296175 # occ.  0.00000000
 
ion      s     py     pz     px    dxy    dyz    dz2    dxz    dx2    tot
  1  0.350  0.204  0.000  0.000  0.000  0.000  0.000  0.000  0.000  0.554
 
band   4 # energy   75.30866713 # occ.  0.00000000
 
ion      s     py     pz     px    dxy    dyz    dz2    dxz    dx2    tot
  1  0.059  0.718  0.000  0.002  0.000  0.000  0.000  0.000  0.000  0.779
 

 k-point   22 :    0.10000000 0.10000000 0.00000000     weight = 0.00150000

band   1 # energy  -12.19850964 # occ.  2.00000000
 
ion      s     py     pz     px    dxy    dyz    dz2    dxz    dx2    tot
  1  0.410  0.002  0.000  0.002  0.000  0.000  0.000  0.000  0.000  0.414
 
band   2 # energy   43.16684123 # occ.  0.00000000
 
ion      s     py     pz     px    dxy    dyz    dz2    dxz    dx2    tot
  1  0.339  0.076  0.000  0.076  0.000  0.000  0.000  0.000  0.000  0.492
 
band   3 # energy   49.42125017 # occ.  0.00000000
 
ion      s     py     pz     px    dxy    dyz    dz2    dxz    dx2    tot
  1  0.000  0.213  0.000  0.213  0.000  0.000  0.000  0.000  0.000  0.426
 
band   4 # energy   60.84648465 # occ.  0.00000000
 
ion      s     py     pz     px    dxy    dyz    dz2    dxz    dx2    tot
  1  0.109  0.089  0.000  0.089  0.000  0.000  0.000  0.000  0.000  0.287
 

 k-point   23 :    0.15000000 0.10000000 0.00000000     weight = 0.00300000

band   1 # energy  -11.32260075 # occ.  2.00000000
 
ion      s     py     pz     px    dxy    dyz    dz2    dxz    dx2    tot
  1  0.409  0.002  0.000  0.004  0.000  0.000  0.000  0.000  0.000  0.415
 
band   2 # energy   39.15970713 # occ.  0.00000000
 
ion      s     py     pz     px    dxy    dyz    dz2    dxz    dx2    tot
  1  0.259  0.007  0.000  0.197  0.000  0.000  0.000  0.000  0.000  0.463
 
band   3 # energy   48.25698599 # occ.  0.00000000
 
ion      s     py     pz     px    dxy    dyz    dz2    dxz    dx2    tot
  1  0.066  0.274  0.000  0.099  0.000  0.000  0.000  0.000  0.000  0.439
 
band   4 # energy   61.62258413 # occ.  0.00000000
 
ion      s     py     pz     px    dxy    dyz    dz2    dxz    dx2    tot
  1  0.119  0.098  0.000  0.054  0.000  0.000  0.000  0.000  0.000  0.271
 

 k-point   24 :    0.20000000 0.10000000 0.00000000     weight = 0.00300000

band   1 # energy  -10.10374160 # occ.  2.00000000
 
ion      s     py     pz     px    dxy    dyz    dz2    dxz    dx2    tot
  1  0.408  0.002  0.000  0.007  0.000  0.000  0.000  0.000  0.000  0.418
 
band   2 # energy   33.88185617 # occ.  0.00000000
 
ion      s     py     pz     px    dxy    dyz    dz2    dxz    dx2    tot
  1  0.205  0.000  0.000  0.220  0.000  0.000  0.000  0.000  0.000  0.425
 
band   3 # energy   48.94647463 # occ.  0.00000000
 
ion      s     py     pz     px    dxy    dyz    dz2    dxz    dx2    tot
  1  0.114  0.281  0.000  0.064  0.000  0.000  0.000  0.000  0.000  0.459
 
band   4 # energy   62.79271865 # occ.  0.00000000
 
ion      s     py     pz     px    dxy    dyz    dz2    dxz    dx2    tot
  1  0.124  0.103  0.000  0.043  0.000  0.000  0.000  0.000  0.000  0.271
 

 k-point   25 :    0.25000000 0.10000000 0.00000000     weight = 0.00300000

band   1 # energy   -8.54503777 # occ.  2.00000000
 
ion      s     py     pz     px    dxy    dyz    dz2    dxz    dx2    tot
  1  0.410  0.002  0.000  0.012  0.000  0.000  0.000  0.000  0.000  0.424
 
band   2 # energy   28.60865236 # occ.  0.00000000
 
ion      s     py     pz     px    dxy    dyz    dz2    dxz    dx2    tot
  1  0.181  0.000  0.000  0.208  0.000  0.000  0.000  0.000  0.000  0.389
 
band   3 # energy   50.30451199 # occ.  0.00000000
 
ion      s     py     pz     px    dxy    dyz    dz2    dxz    dx2    tot
  1  0.137  0.286  0.000  0.056  0.000  0.000  0.000  0.000  0.000  0.479
 
band   4 # energy   64.31321177 # occ.  0.00000000
 
ion      s     py     pz     px    dxy    dyz    dz2    dxz    dx2    tot
  1  0.129  0.102  0.000  0.038  0.000  0.000  0.000  0.000  0.000  0.269
 

 k-point   26 :    0.30000000 0.10000000 0.00000000     weight = 0.00300000

band   1 # energy   -6.67078041 # occ.  2.00000000
 
ion      s     py     pz     px    dxy    dyz    dz2    dxz    dx2    tot
  1  0.415  0.002  0.000  0.016  0.000  0.000  0.000  0.000  0.000  0.434
 
band   2 # energy   23.60852345 # occ.  0.00000000
 
ion      s     py     pz     px    dxy    dyz    dz2    dxz    dx2    tot
  1  0.165  0.000  0.000  0.191  0.000  0.000  0.000  0.000  0.000  0.357
 
band   3 # energy   52.07563444 # occ.  0.00000000
 
ion      s     py     pz     px    dxy    dyz    dz2    dxz    dx2    tot
  1  0.153  0.293  0.000  0.054  0.000  0.000  0.000  0.000  0.000  0.500
 
band   4 # energy   66.12899067 # occ.  0.00000000
 
ion      s     py     pz     px    dxy    dyz    dz2    dxz    dx2    tot
  1  0.135  0.103  0.000  0.031  0.000  0.000  0.000  0.000  0.000  0.270
 

 k-point   27 :    0.35000000 0.10000000 0.00000000     weight = 0.00300000

band   1 # energy   -4.52007772 # occ.  2.00000000
 
ion      s     py     pz     px    dxy    dyz    dz2    dxz    dx2    tot
  1  0.428  0.002  0.000  0.020  0.000  0.000  0.000  0.000  0.000  0.450
 
band   2 # energy   18.98905184 # occ.  0.00000000
 
ion      s     py     pz     px    dxy    dyz    dz2    dxz    dx2    tot
  1  0.147  0.001  0.000  0.178  0.000  0.000  0.000  0.000  0.000  0.325
 
band   3 # energy   54.15358598 # occ.  0.00000000
 
ion      s     py     pz     px    dxy    dyz    dz2    dxz    dx2    tot
  1  0.169  0.304  0.000  0.052  0.000  0.000  0.000  0.000  0.000  0.525
 
band   4 # energy   68.13711921 # occ.  0.00000000
 
ion      s     py     pz     px    dxy    dyz    dz2    dxz    dx2    tot
  1  0.146  0.098  0.000  0.016  0.000  0.000  0.000  0.000  0.000  0.260
 

 k-point   28 :    0.40000000 0.10000000 0.00000000     weight = 0.00300000

band   1 # energy   -2.18650600 # occ.  2.00000000
 
ion      s     py     pz     px    dxy    dyz    dz2    dxz    dx2    tot
  1  0.456  0.002  0.000  0.019  0.000  0.000  0.000  0.000  0.000  0.478
 
band   2 # energy   14.87581993 # occ.  0.00000000
 
ion      s     py     pz     px    dxy    dyz    dz2    dxz    dx2    tot
  1  0.115  0.000  0.000  0.174  0.000  0.000  0.000  0.000  0.000  0.289
 
band   3 # energy   56.41279595 # occ.  0.00000000
 
ion      s     py     pz     px    dxy    dyz    dz2    dxz    dx2    tot
  1  0.192  0.330  0.000  0.042  0.000  0.000  0.000  0.000  0.000  0.564
 
band   4 # energy   69.96869165 # occ.  0.00000000
 
ion      s     py     pz     px    dxy    dyz    dz2    dxz    dx2    tot
  1  0.158  0.051  0.000  0.002  0.000  0.000  0.000  0.000  0.000  0.211
 

 k-point   29 :    0.45000000 0.10000000 0.00000000     weight = 0.00300000

band   1 # energy    0.02656814 # occ.  2.00000000
 
ion      s     py     pz     px    dxy    dyz    dz2    dxz    dx2    tot
  1  0.514  0.003  0.000  0.012  0.000  0.000  0.000  0.000  0.000  0.528
 
band   2 # energy   11.59865842 # occ.  0.00000000
 
ion      s     py     pz     px    dxy    dyz    dz2    dxz    dx2    tot
  1  0.056  0.000  0.000  0.176  0.000  0.000  0.000  0.000  0.000  0.231
 
band   3 # energy   58.53671462 # occ.  0.00000000
 
ion      s     py     pz     px    dxy    dyz    dz2    dxz    dx2    tot
  1  0.229  0.369  0.000  0.022  0.000  0.000  0.000  0.000  0.000  0.620
 
band   4 # energy   69.68364469 # occ.  0.00000000
 
ion      s     py     pz     px    dxy    dyz    dz2    dxz    dx2    tot
  1  0.061  0.002  0.000  0.160  0.000  0.000  0.000  0.000  0.000  0.223
 

 k-point   30 :    0.50000000 0.10000000 0.00000000     weight = 0.00150000

band   1 # energy    1.13367356 # occ.  2.00000000
 
ion      s     py     pz     px    dxy    dyz    dz2    dxz    dx2    tot
  1  0.570  0.002  0.000  0.000  0.000  0.000  0.000  0.000  0.000  0.572
 
band   2 # energy   10.14733600 # occ.  0.00000000
 
ion      s     py     pz     px    dxy    dyz    dz2    dxz    dx2    tot
  1  0.000  0.000  0.000  0.183  0.000  0.000  0.000  0.000  0.000  0.183
 
band   3 # energy   59.57276655 # occ.  0.00000000
 
ion      s     py     pz     px    dxy    dyz    dz2    dxz    dx2    tot
  1  0.258  0.408  0.000  0.000  0.000  0.000  0.000  0.000  0.000  0.666
 
band   4 # energy   68.66041509 # occ.  0.00000000
 
ion      s     py     pz     px    dxy    dyz    dz2    dxz    dx2    tot
  1  0.000  0.000  0.000  0.236  0.000  0.000  0.000  0.000  0.000  0.236
 

 k-point   31 :    0.15000000 0.15000000 0.00000000     weight = 0.00150000

band   1 # energy  -10.44740771 # occ.  2.00000000
 
ion      s     py     pz     px    dxy    dyz    dz2    dxz    dx2    tot
  1  0.408  0.004  0.000  0.004  0.000  0.000  0.000  0.000  0.000  0.416
 
band   2 # energy   38.31924900 # occ.  0.00000000
 
ion      s     py     pz     px    dxy    dyz    dz2    dxz    dx2    tot
  1  0.306  0.083  0.000  0.083  0.000  0.000  0.000  0.000  0.000  0.473
 
band   3 # energy   43.94350057 # occ.  0.00000000
 
ion      s     py     pz     px    dxy    dyz    dz2    dxz    dx2    tot
  1  0.000  0.208  0.000  0.208  0.000  0.000  0.000  0.000  0.000  0.416
 
band   4 # energy   62.37074114 # occ.  0.00000000
 
ion      s     py     pz     px    dxy    dyz    dz2    dxz    dx2    tot
  1  0.133  0.059  0.000  0.059  0.000  0.000  0.000  0.000  0.000  0.251
 

 k-point   32 :    0.20000000 0.15000000 0.00000000     weight = 0.00300000

band   1 # energy   -9.22478404 # occ.  2.00000000
 
ion      s     py     pz     px    dxy    dyz    dz2    dxz    dx2    tot
  1  0.408  0.005  0.000  0.008  0.000  0.000  0.000  0.000  0.000  0.421
 
band   2 # energy   34.41525511 # occ.  0.00000000
 
ion      s     py     pz     px    dxy    dyz    dz2    dxz    dx2    tot
  1  0.237  0.004  0.000  0.188  0.000  0.000  0.000  0.000  0.000  0.430
 
band   3 # energy   43.30970382 # occ.  0.00000000
 
ion      s     py     pz     px    dxy    dyz    dz2    dxz    dx2    tot
  1  0.062  0.276  0.000  0.085  0.000  0.000  0.000  0.000  0.000  0.422
 
band   4 # energy   63.51693476 # occ.  0.00000000
 
ion      s     py     pz     px    dxy    dyz    dz2    dxz    dx2    tot
  1  0.141  0.062  0.000  0.047  0.000  0.000  0.000  0.000  0.000  0.250
 

 k-point   33 :    0.25000000 0.15000000 0.00000000     weight = 0.00300000

band   1 # energy   -7.67195627 # occ.  2.00000000
 
ion      s     py     pz     px    dxy    dyz    dz2    dxz    dx2    tot
  1  0.410  0.005  0.000  0.012  0.000  0.000  0.000  0.000  0.000  0.427
 
band   2 # energy   29.37550934 # occ.  0.00000000
 
ion      s     py     pz     px    dxy    dyz    dz2    dxz    dx2    tot
  1  0.193  0.000  0.000  0.202  0.000  0.000  0.000  0.000  0.000  0.396
 
band   3 # energy   44.43960124 # occ.  0.00000000
 
ion      s     py     pz     px    dxy    dyz    dz2    dxz    dx2    tot
  1  0.103  0.285  0.000  0.057  0.000  0.000  0.000  0.000  0.000  0.444
 
band   4 # energy   64.98283917 # occ.  0.00000000
 
ion      s     py     pz     px    dxy    dyz    dz2    dxz    dx2    tot
  1  0.149  0.059  0.000  0.037  0.000  0.000  0.000  0.000  0.000  0.246
 

 k-point   34 :    0.30000000 0.15000000 0.00000000     weight = 0.00300000

band   1 # energy   -5.80006097 # occ.  2.00000000
 
ion      s     py     pz     px    dxy    dyz    dz2    dxz    dx2    tot
  1  0.415  0.005  0.000  0.017  0.000  0.000  0.000  0.000  0.000  0.437
 
band   2 # energy   24.44501732 # occ.  0.00000000
 
ion      s     py     pz     px    dxy    dyz    dz2    dxz    dx2    tot
  1  0.170  0.001  0.000  0.190  0.000  0.000  0.000  0.000  0.000  0.362
 
band   3 # energy   46.16904575 # occ.  0.00000000
 