   10   10    1    1
  0.2835613E+02  0.7374297E-09  0.7374297E-09  0.7374297E-09  0.5000000E-15
  1.000000000000000E-004
  CAR 
 Cs2 Na1 Sb1 Cl6                         
     74     20     60
 
  0.0000000E+00  0.0000000E+00  0.0000000E+00  0.2915452E-02
    1      -19.012697
    2      -18.992138
    3      -13.857155
    4      -13.217460
    5      -13.217460
    6      -13.217460
    7      -12.922691
    8      -12.922691
    9       -6.047231
   10       -6.047231
   11       -6.047231
   12       -5.902776
   13       -5.902776
   14       -5.902776
   15       -5.782061
   16       -3.047559
   17       -3.047558
   18       -3.047558
   19       -2.512344
   20       -2.512343
   21       -2.069536
   22       -2.069530
   23       -2.069523
   24       -1.071918
   25       -1.071908
   26       -1.071898
   27       -0.901516
   28       -0.901516
   29       -0.901516
   30       -0.595358
   31       -0.595358
   32       -0.595357
   33       -0.248216
   34       -0.248216
   35       -0.248216
   36        0.236611
   37        0.236611
   38        1.259760
   39        5.829150
   40        5.829150
   41        5.829151
   42        5.830599
   43        6.251245
   44        6.251245
   45        7.396735
   46        7.429804
   47        7.429804
   48        7.429805
   49        7.668289
   50        8.287906
   51        8.287906
   52        8.287907
   53        9.338920
   54        9.338920
   55       10.703111
   56       10.703100
   57       10.703124
   58       11.696443
   59       11.697038
   60       11.697336
 
  0.1428571E+00  0.0000000E+00  0.0000000E+00  0.2332362E-01
    1      -19.011394
    2      -18.992894
    3      -13.846358
    4      -13.238446
    5      -13.213246
    6      -13.213246
    7      -12.928480
    8      -12.928480
    9       -6.031207
   10       -6.031207
   11       -6.009142
   12       -5.899358
   13       -5.899357
   14       -5.888116
   15       -5.714493
   16       -3.160359
   17       -3.119642
   18       -3.119641
   19       -2.369059
   20       -2.369058
   21       -2.090265
   22       -2.052159
   23       -2.052148
   24       -1.191279
   25       -1.191268
   26       -1.164115
   27       -0.877999
   28       -0.846948
   29       -0.846943
   30       -0.728340
   31       -0.607260
   32       -0.607259
   33       -0.307644
   34       -0.307644
   35       -0.277875
   36        0.138952
   37        0.138953
   38        1.542854
   39        5.544385
   40        6.040962
   41        6.062438
   42        6.062439
   43        6.396098
   44        6.396098
   45        7.345539
   46        7.544364
   47        7.544365
   48        7.551174
   49        7.839205
   50        8.363459
   51        8.363459
   52        8.557758
   53        9.231673
   54        9.231672
   55       10.407393
   56       10.734096
   57       10.734159
   58       11.364331
   59       11.364941
   60       11.641992
 
  0.2857143E+00  0.0000000E+00  0.0000000E+00  0.2332362E-01
    1      -19.007920
    2      -18.995142
    3      -13.819077
    4      -13.288420
    5      -13.203097
    6      -13.203097
    7      -12.942145
    8      -12.942145
    9       -5.990275
   10       -5.990274
   11       -5.920280
   12       -5.896225
   13       -5.896224
   14       -5.844370
   15       -5.556912
   16       -3.416441
   17       -3.226310
   18       -3.226309
   19       -2.118092
   20       -2.061336
   21       -2.061333
   22       -1.995210
   23       -1.995196
   24       -1.476714
   25       -1.391502
   26       -1.391495
   27       -0.862873
   28       -0.814644
   29       -0.804648
   30       -0.804644
   31       -0.728899
   32       -0.728892
   33       -0.422753
   34       -0.422753
   35       -0.354961
   36       -0.034149
   37       -0.034147
   38        2.174071
   39        4.900048
   40        6.487080
   41        6.619895
   42        6.619895
   43        6.803855
   44        6.803855
   45        7.362078
   46        7.862733
   47        7.862734
   48        7.999750
   49        8.215750
   50        8.407125
   51        8.407125
   52        9.038084
   53        9.038084
   54        9.053814
   55        9.779946
   56       10.511923
   57       10.511963
   58       11.040524
   59       11.041515
   60       11.239968
 
  0.4285714E+00  0.0000000E+00  0.0000000E+00  0.2332362E-01
    1      -19.003320
    2      -18.998767
    3      -13.793072
    4      -13.332436
    5      -13.194145
    6      -13.194145
    7      -12.953916
    8      -12.953916
    9       -5.942970
   10       -5.942970
   11       -5.907819
   12       -5.907819
   13       -5.837789
   14       -5.811291
   15       -5.413053
   16       -3.632094
   17       -3.288072
   18       -3.288072
   19       -2.066774
   20       -1.935399
   21       -1.935387
   22       -1.828453
   23       -1.718276
   24       -1.718276
   25       -1.522117
   26       -1.522114
   27       -1.080141
   28       -1.080139
   29       -0.906321
   30       -0.761705
   31       -0.761692
   32       -0.742602
   33       -0.461097
   34       -0.461097
   35       -0.437941
   36       -0.132677
   37       -0.132674
   38        2.851951
   39        4.193010
   40        6.949340
   41        7.066649
   42        7.066650
   43        7.386385
   44        7.432607
   45        7.432608
   46        8.074935
   47        8.074936
   48        8.314647
   49        8.314648
   50        8.392780
   51        8.710053
   52        8.890357
   53        8.890358
   54        9.304445
   55        9.638006
   56        9.968681
   57        9.968684
   58       10.448953
   59       10.932590
   60       11.135805
 
  0.1428571E+00  0.1428571E+00  0.0000000E+00  0.1749271E-01
    1      -19.011026
    2      -18.993079
    3      -13.843238
    4      -13.227468
    5      -13.220053
    6      -13.220053
    7      -12.940242
    8      -12.921642
    9       -6.023250
   10       -6.023249
   11       -6.002153
   12       -5.895918
   13       -5.890682
   14       -5.890682
   15       -5.697985
   16       -3.278672
   17       -3.044351
   18       -3.044351
   19       -2.513157
   20       -2.248505
   21       -2.128426
   22       -2.033231
   23       -2.033223
   24       -1.225925
   25       -1.225918
   26       -1.100818
   27       -0.939525
   28       -0.837599
   29       -0.837597
   30       -0.827984
   31       -0.591523
   32       -0.591522
   33       -0.333820
   34       -0.333820
   35       -0.251779
   36       -0.046338
   37        0.236182
   38        1.649255
   39        5.720816
   40        6.001260
   41        6.001260
   42        6.119169
   43        6.443311
   44        6.455808
   45        7.378507
   46        7.450682
   47        7.633608
   48        7.633608
   49        7.899396
   50        8.362322
   51        8.362322
   52        8.661102
   53        9.026954
   54        9.430638
   55       10.553128
   56       10.596227
   57       10.596296
   58       11.015134
   59       11.415702
   60       11.425512
 
  0.2857143E+00  0.1428571E+00  0.0000000E+00  0.6997085E-01
    1      -19.008465
    2      -18.994642
    3      -13.822579
    4      -13.264172
    5      -13.217563
    6      -13.206508
    7      -12.959532
    8      -12.926672
    9       -5.990815
   10       -5.990264
   11       -5.932625
   12       -5.891506
   13       -5.881162
   14       -5.859264
   15       -5.583813
   16       -3.401542
   17       -3.130573
   18       -3.116016
   19       -2.366467
   20       -2.179411
   21       -2.004109
   22       -1.989107
   23       -1.983029
   24       -1.422599
   25       -1.384552
   26       -1.226674
   27       -1.018699
   28       -0.924868
   29       -0.817534
   30       -0.797809
   31       -0.716290
   32       -0.643096
   33       -0.413390
   34       -0.406475
   35       -0.293873
   36       -0.260483
   37        0.147251
   38        2.172492
   39        5.270432
   40        6.368240
   41        6.433203
   42        6.540451
   43        6.732461
   44        6.801135
   45        7.476611
   46        7.632323
   47        7.926196
   48        7.958726
   49        8.122300
   50        8.427295
   51        8.571755
   52        8.777171
   53        8.910701
   54        9.389020
   55       10.000870
   56       10.273393
   57       10.588239
   58       10.762119
   59       11.062086
   60       11.286356
 
  0.4285714E+00  0.1428571E+00  0.0000000E+00  0.6997085E-01
    1      -19.004511
    2      -18.997535
    3      -13.796479
    4      -13.310051
    5      -13.207112
    6      -13.197579
    7      -12.971169
    8      -12.940303
    9       -5.948543
   10       -5.942318
   11       -5.895110
   12       -5.886359
   13       -5.852385
   14       -5.820972
   15       -5.445987
   16       -3.527679
   17       -3.233930
   18       -3.224371
   19       -2.171532
   20       -2.047514
   21       -1.939965
   22       -1.909857
   23       -1.740585
   24       -1.711957
   25       -1.550817
   26       -1.405898
   27       -1.196325
   28       -0.942349
   29       -0.864033
   30       -0.840641
   31       -0.787071
   32       -0.783754
   33       -0.441894
   34       -0.438666
   35       -0.390219
   36       -0.306683
   37       -0.016945
   38        2.840072
   39        4.567514
   40        6.921217
   41        6.962392
   42        7.111631
   43        7.219396
   44        7.358686
   45        7.568367
   46        7.942146
   47        8.198560
   48        8.273322
   49        8.330418
   50        8.412568
   51        8.567256
   52        8.689461
   53        9.141785
   54        9.340169
   55        9.437993
   56        9.786560
   57       10.309122
   58       10.533200
   59       10.982414
   60       11.087606
 
 -0.4285714E+00  0.1428571E+00  0.0000000E+00  0.6997085E-01
    1      -19.001470
    2      -19.000251
    3      -13.786872
    4      -13.326803
    5      -13.203210
    6      -13.195722
    7      -12.964790
    8      -12.953107
    9       -5.919465
   10       -5.916775
   11       -5.912953
   12       -5.896879
   13       -5.822350
   14       -5.814158
   15       -5.395062
   16       -3.601041
   17       -3.287292
   18       -3.212283
   19       -2.061948
   20       -2.042422
   21       -1.922261
   22       -1.864516
   23       -1.764252
   24       -1.673397
   25       -1.553891
   26       -1.553139
   27       -1.151012
   28       -1.071209
   29       -0.971328
   30       -0.802170
   31       -0.794666
   32       -0.760461
   33       -0.466783
   34       -0.457076
   35       -0.425043
   36       -0.246909
   37       -0.129261
   38        3.157173
   39        4.217911
   40        7.139100
   41        7.183549
   42        7.319032
   43        7.465871
   44        7.625418
   45        7.705360
   46        7.976449
   47        8.068930
   48        8.253498
   49        8.260810
   50        8.535350
   51        8.731794
   52        8.754421
   53        8.838800
   54        9.262556
   55        9.670866
   56        9.921122
   57        9.960982
   58       10.206419
   59       10.587631
   60       10.933881
 
 -0.2857143E+00  0.1428571E+00  0.0000000E+00  0.6997085E-01
    1      -19.005778
    2      -18.996595
    3      -13.803943
    4      -13.300265
    5      -13.216153
    6      -13.192977
    7      -12.954460
    8      -12.946940
    9       -5.963955
   10       -5.957126
   11       -5.901787
   12       -5.879092
   13       -5.872675
   14       -5.833568
   15       -5.481531
   16       -3.523218
   17       -3.288102
   18       -3.106489
   19       -2.214955
   20       -2.135892
   21       -1.987195
   22       -1.933467
   23       -1.711993
   24       -1.672207
   25       -1.422754
   26       -1.422504
   27       -1.057456
   28       -1.040776
   29       -0.828862
   30       -0.790462
   31       -0.745019
   32       -0.723180
   33       -0.449978
   34       -0.438848
   35       -0.372880
   36       -0.152917
   37       -0.110025
   38        2.596099
   39        4.750397
   40        6.652167
   41        6.786099
   42        6.979388
   43        7.035648
   44        7.248840
   45        7.579915
   46        7.942426
   47        7.972429
   48        8.173490
   49        8.277849
   50        8.431291
   51        8.674438
   52        8.729377
   53        9.138751
   54        9.199084
   55        9.642733
   56       10.013536
   57       10.228158
   58       10.580427
   59       11.033304
   60       11.274993
 
 -0.1428571E+00  0.1428571E+00  0.0000000E+00  0.3498542E-01
    1      -19.009436
    2      -18.994079
    3      -13.830419
    4      -13.259061
    5      -13.221760
    6      -13.201337
    7      -12.942937
    8      -12.931543
    9       -6.008607
   10       -6.001878
   11       -5.958173
   12       -5.900663
   13       -5.879103
   14       -5.872311
   15       -5.623509
   16       -3.344251
   17       -3.226935
   18       -3.037451
   19       -2.396056
   20       -2.129545
   21       -2.060685
   22       -2.037349
   23       -1.996978
   24       -1.402033
   25       -1.274522
   26       -1.216346
   27       -0.974427
   28       -0.876499
   29       -0.774268
   30       -0.772412
   31       -0.723284
   32       -0.605119
   33       -0.401903
   34       -0.362059
   35       -0.305777
   36       -0.051306
   37        0.077176
   38        1.941191
   39        5.314519
   40        6.154010
   41        6.314836
   42        6.505375
   43        6.599245
   44        6.655231
   45        7.463233
   46        7.632923
   47        7.665541
   48        7.854565
   49        7.980918
   50        8.499630
   51        8.533309
   52        8.786249
   53        8.870443
   54        9.331977
   55       10.163323
   56       10.427946
   57       10.706465
   58       10.973952
   59       11.016263
   60       11.543380
 
  0.2857143E+00  0.2857143E+00  0.0000000E+00  0.1749271E-01
    1      -19.007281
    2      -18.995185
    3      -13.812575
    4      -13.237869
    5      -13.225867
    6      -13.225867
    7      -12.991140
    8      -12.919310
    9       -5.968188
   10       -5.968188
   11       -5.894824
   12       -5.869392
   13       -5.863117
   14       -5.863117
   15       -5.544641
   16       -3.381063
   17       -3.036271
   18       -3.036270
   19       -2.514996
   20       -2.275253
   21       -1.983200
   22       -1.942060
   23       -1.942051
   24       -1.419425
   25       -1.419421
   26       -1.305272
   27       -1.154843
   28       -1.021910
   29       -0.852515
   30       -0.852513
   31       -0.699608
   32       -0.699608
   33       -0.671020
   34       -0.406214
   35       -0.406211
   36       -0.259757
   37        0.235151
   38        2.557862
   39        5.613052
   40        6.412953
   41        6.412953
   42        6.639625
   43        6.925801
   44        7.101070
   45        7.601651
   46        7.652235
   47        8.173209
   48        8.173210
   49        8.426360
   50        8.528137
   51        8.565018
   52        8.565018
   53        8.838738
   54        9.660536
   55        9.734505
   56       10.090986
   57       10.375792
   58       10.375805
   59       11.028301
   60       11.030728
 
  0.4285714E+00  0.2857143E+00  0.0000000E+00  0.6997085E-01
    1      -19.004801
    2      -18.996821
    3      -13.794881
    4      -13.267348
    5      -13.222943
    6      -13.211463
    7      -13.011810
    8      -12.924395
    9       -5.937854
   10       -5.932299
   11       -5.867483
   12       -5.858284
   13       -5.837323
   14       -5.835369
   15       -5.466803
   16       -3.321797
   17       -3.110777
   18       -3.097550
   19       -2.361401
   20       -2.315863
   21       -1.981063
   22       -1.889995
   23       -1.869460
   24       -1.631884
   25       -1.520995
   26       -1.355831
   27       -1.264729
   28       -1.004256
   29       -0.998499
   30       -0.900266
   31       -0.886545
   32       -0.791369
   33       -0.644286
   34       -0.407105
   35       -0.402356
   36       -0.302006
   37        0.151487
   38        3.105970
   39        5.179716
   40        6.807610
   41        6.963999
   42        7.012438
   43        7.243619
   44        7.570568
   45        7.778514
   46        7.889661
   47        8.274759
   48        8.333595
   49        8.461541
   50        8.488054
   51        8.608440
   52        8.611543
   53        9.062741
   54        9.443081
   55        9.445912
   56        9.657975
   57       10.290458
   58       10.430321
   59       10.822089
   60       10.852836
 
 -0.4285714E+00  0.2857143E+00  0.0000000E+00  0.6997085E-01
    1      -19.001772
    2      -18.999449
    3      -13.782547
    4      -13.294805
    5      -13.216467
    6      -13.210351
    7      -12.999612
    8      -12.938766
    9       -5.914253
   10       -5.888328
   11       -5.878838
   12       -5.877222
   13       -5.821469
   14       -5.811125
   15       -5.406155
   16       -3.423428
   17       -3.222278
   18       -3.036509
   19       -2.239719
   20       -2.181449
   21       -2.025005
   22       -1.964605
   23       -1.880393
   24       -1.656046
   25       -1.565710
   26       -1.494719
   27       -1.148867
   28       -1.062845
   29       -1.041748
   30       -0.906280
   31       -0.896163
   32       -0.800796
   33       -0.538983
   34       -0.420562
   35       -0.412614
   36       -0.394802
   37       -0.012804
   38        3.503076
   39        4.628053
   40        7.266681
   41        7.442736
   42        7.481264
   43        7.607499
   44        7.635751
   45        7.748905
   46        8.058707
   47        8.151648
   48        8.258498
   49        8.395143
   50        8.448482
   51        8.699004
   52        8.829059
   53        8.839832
   54        9.211057
   55        9.503755
   56        9.613870
   57        9.972925
   58       10.268849
   59       10.298788
   60       10.870661
 
 -0.2857143E+00  0.2857143E+00  0.0000000E+00  0.3498542E-01
    1      -19.002671
    2      -18.998884
    3      -13.787014
    4      -13.303243
    5      -13.224967
    6      -13.196461
    7      -12.970159
    8      -12.952695
    9       -5.920350
   10       -5.911669
   11       -5.903991
   12       -5.852639
   13       -5.835925
   14       -5.829435
   15       -5.412086
   16       -3.538203
   17       -3.286674
   18       -2.978741
   19       -2.316971
   20       -2.115572
   21       -2.048561
   22       -1.939509
   23       -1.679797
   24       -1.642943
   25       -1.500020
   26       -1.484100
   27       -1.231342
   28       -1.172482
   29       -0.849123
   30       -0.819284
   31       -0.813963
   32       -0.789476
   33       -0.475679
   34       -0.438532
   35       -0.387991
   36       -0.353862
   37       -0.134296
   38        3.202767
   39        4.614958
   40        6.868093
   41        7.204213
   42        7.346333
   43        7.620636
   44        7.702757
   45        7.887272
   46        7.915212
   47        8.140132
   48        8.285506
   49        8.420261
   50        8.425851
   51        8.455380
   52        8.838087
   53        8.883389
   54        9.243259
   55        9.618205
   56        9.748422
   57        9.952833
   58       10.000921
   59       10.640634
   60       10.871638
 
  0.4285714E+00  0.4285714E+00  0.0000000E+00  0.1749271E-01
    1      -19.004268
    2      -18.996877
    3      -13.789364
    4      -13.230499
    5      -13.230499
    6      -13.225214
    7      -13.051485
    8      -12.917424
    9       -5.922619
   10       -5.922619
   11       -5.848893
   12       -5.840783
   13       -5.840783
   14       -5.801615
   15       -5.461013
   16       -3.046526
   17       -3.029003
   18       -3.029003
   19       -2.516455
   20       -2.406984
   21       -2.295135
   22       -1.863120
   23       -1.863108
   24       -1.501248
   25       -1.501247
   26       -1.472136
   27       -1.188982
   28       -1.163072
   29       -1.085183
   30       -0.984877
   31       -0.984877
   32       -0.817931
   33       -0.817931
   34       -0.385576
   35       -0.385571
   36       -0.266116
   37        0.234288
   38        3.441492
   39        5.614384
   40        6.774905
   41        6.774905
   42        7.110064
   43        7.393470
   44        7.816359
   45        7.853994
   46        7.930346
   47        8.150561
   48        8.246297
   49        8.762435
   50        8.762435
   51        8.903222
   52        8.903222
   53        8.947525
   54        9.210497
   55        9.813220
   56        9.877951
   57        9.908287
   58        9.908290
   59       10.691925
   60       10.697859
 
 -0.4285714E+00  0.4285714E+00  0.0000000E+00  0.3498542E-01
    1      -19.003170
    2      -18.997793
    3      -13.783745
    4      -13.252621
    5      -13.225335
    6      -13.221181
    7      -13.042509
    8      -12.923386
    9       -5.913897
   10       -5.904862
   11       -5.852566
   12       -5.848163
   13       -5.831237
   14       -5.792411
   15       -5.435097
   16       -3.172999
   17       -3.108223
   18       -2.873676
   19       -2.438551
   20       -2.381085
   21       -2.358382
   22       -1.867343
   23       -1.857131
   24       -1.638970
   25       -1.532963
   26       -1.330158
   27       -1.223457
   28       -1.200951
   29       -1.029569
   30       -1.027800
   31       -1.017181
   32       -0.820817
   33       -0.744772
   34       -0.393736
   35       -0.384779
   36       -0.306248
   37        0.152259
   38        3.621132
   39        5.235500
   40        7.031838
   41        7.229600
   42        7.273396
   43        7.526079
   44        7.596396
   45        7.946359
   46        7.988002
   47        8.050578
   48        8.453090
   49        8.721324
   50        8.772839
   51        8.916921
   52        8.940121
   53        9.102424
   54        9.155974
   55        9.173492
   56        9.725068
   57        9.986053
   58       10.072189
   59       10.421364
   60       10.806331
 
  0.4285714E+00  0.2857143E+00  0.1428571E+00  0.6997085E-01
    1      -19.005860
    2      -18.996324
    3      -13.803265
    4      -13.280072
    5      -13.225574
    6      -13.199381
    7      -12.979052
    8      -12.931925
    9       -5.957113
   10       -5.951763
   11       -5.889578
   12       -5.873347
   13       -5.852773
   14       -5.849584
   15       -5.490533
   16       -3.455152
   17       -3.233765
   18       -3.020156
   19       -2.368272
   20       -2.223914
   21       -1.949979
   22       -1.927010
   23       -1.776016
   24       -1.636742
   25       -1.443270
   26       -1.289612
   27       -1.243323
   28       -1.016157
   29       -0.896658
   30       -0.826857
   31       -0.789687
   32       -0.711979
   33       -0.444589
   34       -0.417494
   35       -0.399641
   36       -0.325920
   37        0.060986
   38        2.719889
   39        5.041903
   40        6.539034
   41        6.811080
   42        7.007219
   43        7.094778
   44        7.256424
   45        7.729864
   46        7.783395
   47        8.070413
   48        8.251071
   49        8.318090
   50        8.446556
   51        8.601363
   52        8.865899
   53        8.881133
   54        9.317628
   55        9.725965
   56        9.841629
   57       10.170391
   58       10.643680
   59       10.875955
   60       11.217846
 
 -0.4285714E+00  0.2857143E+00  0.1428571E+00  0.1399417E+00
    1      -19.002421
    2      -18.999027
    3      -13.785674
    4      -13.302207
    5      -13.218251
    6      -13.202639
    7      -12.984304
    8      -12.943926
    9       -5.918132
   10       -5.907056
   11       -5.895111
   12       -5.866661
   13       -5.826420
   14       -5.821104
   15       -5.410324
   16       -3.501691
   17       -3.225335
   18       -3.078307
   19       -2.214941
   20       -2.156581
   21       -2.032887
   22       -1.892069
   23       -1.799629
   24       -1.674566
   25       -1.551997
   26       -1.463561
   27       -1.213778
   28       -1.101779
   29       -0.944597
   30       -0.892403
   31       -0.831956
   32       -0.767029
   33       -0.474375
   34       -0.431609
   35       -0.392575
   36       -0.374161
   37       -0.082443
   38        3.303709
   39        4.589802
   40        7.051977
   41        7.241498
   42        7.408040
   43        7.579746
   44        7.759592
   45        7.823125
   46        7.946511
   47        8.097232
   48        8.149180
   49        8.387443
   50        8.438643
   51        8.697246
   52        8.788457
   53        8.890778
   54        9.332173
   55        9.505797
   56        9.681826
   57        9.937230
   58       10.171678
   59       10.467527
   60       10.849438
 
 -0.4285714E+00  0.4285714E+00  0.1428571E+00  0.6997085E-01
    1      -19.002989
    2      -18.998124
    3      -13.784311
    4      -13.266443
    5      -13.228641
    6      -13.215375
    7      -13.020791
    8      -12.929584
    9       -5.910162
   10       -5.909167
   11       -5.866477
   12       -5.847925
   13       -5.831606
   14       -5.806590
   15       -5.427840
   16       -3.338878
   17       -3.038309
   18       -3.004387
   19       -2.416773
   20       -2.320861
   21       -2.139730
   22       -1.921227
   23       -1.858081
   24       -1.658481
   25       -1.512201
   26       -1.335067
   27       -1.289383
   28       -1.158413
   29       -1.011338
   30       -0.984183
   31       -0.941122
   32       -0.776887
   33       -0.653625
   34       -0.407248
   35       -0.391050
   36       -0.333958
   37        0.068222
   38        3.518232
   39        5.040406
   40        6.905640
   41        7.275700
   42        7.478069
   43        7.586183
   44        7.733458
   45        7.865216
   46        7.959575
   47        8.129597
   48        8.270003
   49        8.359155
   50        8.751288
   51        8.808297
   52        8.898894
   53        8.964979
   54        9.324523
   55        9.379583
   56        9.666608
   57        9.703546
   58       10.209490
   59       10.445480
   60       10.668115
 
 -0.2857143E+00  0.4285714E+00  0.1428571E+00  0.6997085E-01
    1      -19.000928
    2      -19.000108
    3      -13.779912
    4      -13.281791
    5      -13.224491
    6      -13.217911
    7      -13.001642
    8      -12.941221
    9       -5.898447
   10       -5.880641
   11       -5.877328
   12       -5.872087
   13       -5.819810
   14       -5.809138
   15       -5.402239
   16       -3.446828
   17       -3.091703
   18       -2.939184
   19       -2.414470
   20       -2.212959
   21       -2.089278
   22       -2.055152
   23       -1.854594
   24       -1.567527
   25       -1.522305
   26       -1.509523
   27       -1.175167
   28       -1.104955
   29       -1.067628
   30       -1.032697
   31       -0.829601
   32       -0.782767
   33       -0.525878
   34       -0.418300
   35       -0.408103
   36       -0.388321
   37       -0.077729
   38        3.644505
   39        4.750433
   40        7.223099
   41        7.297419
   42        7.612610
   43        7.676436
   44        7.766148
   45        7.830821
   46        8.150799
   47        8.239452
   48        8.302965
   49        8.335853
   50        8.638273
   51        8.644583
   52        8.873949
   53        8.913531
   54        9.352420
   55        9.370630
   56        9.590457
   57        9.671460
   58        9.823840
   59       10.197911
   60       10.725168
