 vasp.5.3.5 31Mar14 (build Mar 24 2016 18:19:55) complex                        
  
 executed on             LinuxIFC date 2016.08.22  10:15:52
 running on   20 total cores
 distrk:  each k-point on   20 cores,    1 groups
 distr:  one band on NCORES_PER_BAND=   5 cores,    4 groups


--------------------------------------------------------------------------------------------------------


 INCAR:
 POTCAR:   PAW_PBE Cs_sv 08Apr2002                
 POTCAR:   PAW_PBE Ag 06Sep2000                   
 POTCAR:   PAW_PBE Ga 08Apr2002                   
 POTCAR:    PAW_PBE Cl 17Jan2003                  
 POTCAR:   PAW_PBE Cs_sv 08Apr2002                
   VRHFIN =Cs: 5s5p6s                                                           
   LEXCH  = PE                                                                  
   EATOM  =   555.6835 eV,   40.8416 Ry                                         
                                                                                
   TITEL  = PAW_PBE Cs_sv 08Apr2002                                             
   LULTRA =        F    use ultrasoft PP ?                                      
   IUNSCR =        1    unscreen: 0-lin 1-nonlin 2-no                           
   RPACOR =    2.200    partial core radius                                     
   POMASS =  132.900; ZVAL   =    9.000    mass and valenz                      
   RCORE  =    2.500    outmost cutoff radius                                   
   RWIGS  =    2.500; RWIGS  =    1.323    wigner-seitz radius (au A)           
   ENMAX  =  220.318; ENMIN  =  165.238 eV                                      
   RCLOC  =    2.207    cutoff for local pot                                    
   LCOR   =        T    correct aug charges                                     
   LPAW   =        T    paw PP                                                  
   EAUG   =  407.933                                                            
   DEXC   =    -.004                                                            
   RMAX   =    3.106    core radius for proj-oper                               
   RAUG   =    1.300    factor for augmentation sphere                          
   RDEP   =    2.590    radius for radial grids                                 
   QCUT   =   -4.024; QGAM   =    8.048    optimization parameters              
                                                                                
   Description                                                                  
     l     E      TYP  RCUT    TYP  RCUT                                        
     0   .000     23  1.900                                                     
     0   .000     23  1.900                                                     
     0   .000     23  1.900                                                     
     0   .000     23  1.900                                                     
     1   .000     23  2.500                                                     
     1  -.200     23  2.500                                                     
     2   .000     23  2.500                                                     
  local pseudopotential read in
  partial core-charges read in
  atomic valenz-charges read in
  non local Contribution for L=           0  read in
    real space projection operators read in
  non local Contribution for L=           0  read in
    real space projection operators read in
  non local Contribution for L=           1  read in
    real space projection operators read in
  non local Contribution for L=           1  read in
    real space projection operators read in
  non local Contribution for L=           2  read in
    real space projection operators read in
    PAW grid and wavefunctions read in
 
   number of l-projection  operators is LMAX  =           5
   number of lm-projection operators is LMMAX =          13
 
 POTCAR:   PAW_PBE Ag 06Sep2000                   
   VRHFIN =Ag : s1 d10                                                          
   LEXCH  = PE                                                                  
   EATOM  =  1037.4134 eV,   76.2477 Ry                                         
                                                                                
   TITEL  = PAW_PBE Ag 06Sep2000                                                
   LULTRA =        F    use ultrasoft PP ?                                      
   IUNSCR =        1    unscreen: 0-lin 1-nonlin 2-no                           
   RPACOR =    2.000    partial core radius                                     
   POMASS =  107.868; ZVAL   =   11.000    mass and valenz                      
   RCORE  =    2.400    outmost cutoff radius                                   
   RWIGS  =    2.840; RWIGS  =    1.503    wigner-seitz radius (au A)           
   ENMAX  =  249.846; ENMIN  =  187.385 eV                                      
   RCLOC  =    1.962    cutoff for local pot                                    
   LCOR   =        T    correct aug charges                                     
   LPAW   =        T    paw PP                                                  
   EAUG   =  412.496                                                            
   DEXC   =    -.047                                                            
   RMAX   =    2.917    core radius for proj-oper                               
   RAUG   =    1.300    factor for augmentation sphere                          
   RDEP   =    2.416    radius for radial grids                                 
   QCUT   =   -4.285; QGAM   =    8.570    optimization parameters              
                                                                                
   Description                                                                  
     l     E      TYP  RCUT    TYP  RCUT                                        
     2   .000     23  2.400                                                     
     2   .000     23  2.400                                                     
     0   .000     23  2.400                                                     
     0   .000     23  2.400                                                     
     1  -.200     23  2.400                                                     
     1  1.500     23  2.400                                                     
     3   .000      7   .000                                                     
  local pseudopotential read in
  partial core-charges read in
  atomic valenz-charges read in
  non local Contribution for L=           2  read in
    real space projection operators read in
  non local Contribution for L=           2  read in
    real space projection operators read in
  non local Contribution for L=           0  read in
    real space projection operators read in
  non local Contribution for L=           0  read in
    real space projection operators read in
  non local Contribution for L=           1  read in
    real space projection operators read in
  non local Contribution for L=           1  read in
    real space projection operators read in
    PAW grid and wavefunctions read in
 
   number of l-projection  operators is LMAX  =           6
   number of lm-projection operators is LMMAX =          18
 
 POTCAR:   PAW_PBE Ga 08Apr2002                   
   VRHFIN =Ga: s2p1                                                             
   LEXCH  = PE                                                                  
   EATOM  =    58.8688 eV,    4.3267 Ry                                         
                                                                                
   TITEL  = PAW_PBE Ga 08Apr2002                                                
   LULTRA =        F    use ultrasoft PP ?                                      
   IUNSCR =        1    unscreen: 0-lin 1-nonlin 2-no                           
   RPACOR =    2.170    partial core radius                                     
   POMASS =   69.723; ZVAL   =    3.000    mass and valenz                      
   RCORE  =    2.600    outmost cutoff radius                                   
   RWIGS  =    2.650; RWIGS  =    1.402    wigner-seitz radius (au A)           
   ENMAX  =  134.678; ENMIN  =  101.009 eV                                      
   ICORE  =        3    local potential                                         
   LCOR   =        T    correct aug charges                                     
   LPAW   =        T    paw PP                                                  
   EAUG   =  320.264                                                            
   DEXC   =    -.116                                                            
   RMAX   =    3.973    core radius for proj-oper                               
   RAUG   =    1.300    factor for augmentation sphere                          
   RDEP   =    2.684    radius for radial grids                                 
   QCUT   =   -3.146; QGAM   =    6.292    optimization parameters              
                                                                                
   Description                                                                  
     l     E      TYP  RCUT    TYP  RCUT                                        
     0   .000     23  2.600                                                     
     0   .000     23  2.600                                                     
     1   .000     23  2.600                                                     
     1   .000     23  2.600                                                     
     2   .100     23  2.600                                                     
     3  -.100      7  2.600                                                     
  local pseudopotential read in
  partial core-charges read in
  atomic valenz-charges read in
  non local Contribution for L=           0  read in
    real space projection operators read in
  non local Contribution for L=           0  read in
    real space projection operators read in
  non local Contribution for L=           1  read in
    real space projection operators read in
  non local Contribution for L=           1  read in
    real space projection operators read in
  non local Contribution for L=           2  read in
    real space projection operators read in
    PAW grid and wavefunctions read in
 
   number of l-projection  operators is LMAX  =           5
   number of lm-projection operators is LMMAX =          13
 
 POTCAR:    PAW_PBE Cl 17Jan2003                  
   VRHFIN =Cl: s2p5                                                             
   LEXCH  = PE                                                                  
   EATOM  =   409.7259 eV,   30.1140 Ry                                         
                                                                                
   TITEL  = PAW_PBE Cl 17Jan2003                                                
   LULTRA =        F    use ultrasoft PP ?                                      
   IUNSCR =        1    unscreen: 0-lin 1-nonlin 2-no                           
   RPACOR =    1.500    partial core radius                                     
   POMASS =   35.453; ZVAL   =    7.000    mass and valenz                      
   RCORE  =    1.900    outmost cutoff radius                                   
   RWIGS  =    2.100; RWIGS  =    1.111    wigner-seitz radius (au A)           
   ENMAX  =  280.000; ENMIN  =  196.854 eV                                      
   ICORE  =        2    local potential                                         
   LCOR   =        T    correct aug charges                                     
   LPAW   =        T    paw PP                                                  
   EAUG   =  356.192                                                            
   DEXC   =     .000                                                            
   RMAX   =    2.846    core radius for proj-oper                               
   RAUG   =    1.300    factor for augmentation sphere                          
   RDEP   =    2.020    radius for radial grids                                 
   QCUT   =   -4.392; QGAM   =    8.784    optimization parameters              
                                                                                
   Description                                                                  
     l     E      TYP  RCUT    TYP  RCUT                                        
     0   .000     23  1.900                                                     
     0   .000     23  1.900                                                     
     1   .000     23  1.900                                                     
     1   .000     23  1.900                                                     
     2   .000     23  1.900                                                     
  local pseudopotential read in
  partial core-charges read in
  atomic valenz-charges read in
  non local Contribution for L=           0  read in
    real space projection operators read in
  non local Contribution for L=           0  read in
    real space projection operators read in
  non local Contribution for L=           1  read in
    real space projection operators read in
  non local Contribution for L=           1  read in
    real space projection operators read in
    PAW grid and wavefunctions read in
 
   number of l-projection  operators is LMAX  =           4
   number of lm-projection operators is LMMAX =           8
 
 PAW_PBE Cs_sv 08Apr2002                :
 energy of atom  1       EATOM= -555.6835
 kinetic energy error for atom=    0.0043 (will be added to EATOM!!)
 PAW_PBE Ag 06Sep2000                   :
 energy of atom  2       EATOM=-1037.4134
 kinetic energy error for atom=    0.0201 (will be added to EATOM!!)
 PAW_PBE Ga 08Apr2002                   :
 energy of atom  3       EATOM=  -58.8688
 kinetic energy error for atom=    0.0001 (will be added to EATOM!!)
  PAW_PBE Cl 17Jan2003                  :
 energy of atom  4       EATOM= -409.7259
 kinetic energy error for atom=    0.0103 (will be added to EATOM!!)
 
 
 POSCAR:                                         
  positions in direct lattice
  No initial velocities read in
 exchange correlation table for  LEXCH =        8
   RHO(1)=    0.500       N(1)  =     2000
   RHO(2)=  100.500       N(2)  =     4000
 


--------------------------------------------------------------------------------------------------------


 ion  position               nearest neighbor table
   1  0.000  0.000  0.000-
   2  0.500  0.500  0.500-
   3  0.250  0.250  0.250-   5 2.79   6 2.79   7 2.79   8 2.79   9 2.79  10 2.79
   4  0.750  0.750  0.750-   5 2.43   6 2.43   7 2.43   8 2.43   9 2.43  10 2.43
   5  0.517  0.517  0.983-   4 2.43   3 2.79
   6  0.517  0.983  0.517-   4 2.43   3 2.79
   7  0.517  0.983  0.983-   4 2.43   3 2.79
   8  0.983  0.983  0.517-   4 2.43   3 2.79
   9  0.983  0.517  0.983-   4 2.43   3 2.79
  10  0.983  0.517  0.517-   4 2.43   3 2.79
 

IMPORTANT INFORMATION: All symmetrisations will be switched off!
NOSYMM: (Re-)initialisation of all symmetry stuff for point group C_1.

 
 
 KPOINTS: k-points along high symmetry lines      
  interpolating k-points between supplied coordinates
  k-points in reciprocal lattice
Space group operators:
 irot       det(A)        alpha          n_x          n_y          n_z        tau_x        tau_y        tau_z
    1     1.000000     0.000000     1.000000     0.000000     0.000000     0.000000     0.000000     0.000000


--------------------------------------------------------------------------------------------------------




 Dimension of arrays:
   k-points           NKPTS =    150   k-points in BZ     NKDIM =    150   number of bands    NBANDS=    176
   number of dos      NEDOS =    301   number of ions     NIONS =     10
   non local maximal  LDIM  =      6   non local SUM 2l+1 LMDIM =     18
   total plane-waves  NPLWV =  46656
   max r-space proj   IRMAX =      1   max aug-charges    IRDMAX=  94792
   dimension x,y,z NGX =    36 NGY =   36 NGZ =   36
   dimension x,y,z NGXF=    72 NGYF=   72 NGZF=   72
   support grid    NGXF=   144 NGYF=  144 NGZF=  144
   ions per type =               2   1   1   6
 NGX,Y,Z   is equivalent  to a cutoff of   8.12,  8.12,  8.12 a.u.
 NGXF,Y,Z  is equivalent  to a cutoff of  16.23, 16.23, 16.23 a.u.


 I would recommend the setting:
   dimension x,y,z NGX =    34 NGY =   34 NGZ =   34
 SYSTEM =  unknown system                          
 POSCAR =                                          

 Startparameter for this run:
   NWRITE =      2    write-flag & timer
   PREC   = normal    normal or accurate (medium, high low for compatibility)
   ISTART =      0    job   : 0-new  1-cont  2-samecut
   ICHARG =      1    charge: 1-file 2-atom 10-const
   ISPIN  =      1    spin polarized calculation?
   LNONCOLLINEAR =      T non collinear calculations
   LSORBIT =      T    spin-orbit coupling
   INIWAV =      1    electr: 0-lowe 1-rand  2-diag
   LASPH  =      F    aspherical Exc in radial PAW
   METAGGA=      F    non-selfconsistent MetaGGA calc.

 Electronic Relaxation 1
   ENCUT  =  364.0 eV  26.75 Ry    5.17 a.u.  11.47 11.47 11.47*2*pi/ulx,y,z
   ENINI  =  364.0     initial cutoff
   ENAUG  =  412.5 eV  augmentation charge cutoff
   NELM   =    160;   NELMIN=  2; NELMDL= -5     # of ELM steps 
   EDIFF  = 0.1E-05   stopping-criterion for ELM
   LREAL  =      F    real-space projection
   NLSPLINE    = F    spline interpolate recip. space projectors
   LCOMPAT=      F    compatible to vasp.4.4
   GGA_COMPAT  = F    GGA compatible to vasp.4.4-vasp.4.6
   LMAXPAW     = -100 max onsite density
   LMAXMIX     =    4 max onsite mixed and CHGCAR
   VOSKOWN=      0    Vosko Wilk Nusair interpolation
   ROPT   =    0.00000   0.00000   0.00000   0.00000
 Ionic relaxation
   EDIFFG = 0.1E-04   stopping-criterion for IOM
   NSW    =      0    number of steps for IOM
   NBLOCK =      1;   KBLOCK =      1    inner block; outer block 
   IBRION =     -1    ionic relax: 0-MD 1-quasi-New 2-CG
   NFREE  =      0    steps in history (QN), initial steepest desc. (CG)
   ISIF   =      2    stress and relaxation
   IWAVPR =     10    prediction:  0-non 1-charg 2-wave 3-comb
   ISYM   =      0    0-nonsym 1-usesym 2-fastsym
   LCORR  =      T    Harris-Foulkes like correction to forces

   POTIM  = 0.5000    time-step for ionic-motion
   TEIN   =    0.0    initial temperature
   TEBEG  =    0.0;   TEEND  =   0.0 temperature during run
   SMASS  =  -3.00    Nose mass-parameter (am)
   estimated Nose-frequenzy (Omega)   =  0.10E-29 period in steps =****** mass=  -0.124E-26a.u.
   SCALEE = 1.0000    scale energy and forces
   NPACO  =    256;   APACO  = 16.0  distance and # of slots for P.C.
   PSTRESS=    0.0 pullay stress

  Mass of Ions in am
   POMASS = 132.90107.87 69.72 35.45
  Ionic Valenz
   ZVAL   =   9.00 11.00  3.00  7.00
  Atomic Wigner-Seitz radii
   RWIGS  =  -1.00 -1.00 -1.00 -1.00
  virtual crystal weights 
   VCA    =   1.00  1.00  1.00  1.00
   NELECT =      74.0000    total number of electrons
   NUPDOWN=      -1.0000    fix difference up-down

 DOS related values:
   EMIN   =  10.00;   EMAX   =-10.00  energy-range for DOS
   EFERMI =   0.00
   ISMEAR =     0;   SIGMA  =   0.05  broadening in eV -4-tet -1-fermi 0-gaus

 Electronic relaxation 2 (details)
   IALGO  =     68    algorithm
   LDIAG  =      T    sub-space diagonalisation (order eigenvalues)
   LSUBROT=      F    optimize rotation matrix (better conditioning)
   TURBO    =      0    0=normal 1=particle mesh
   IRESTART =      0    0=no restart 2=restart with 2 vectors
   NREBOOT  =      0    no. of reboots
   NMIN     =      0    reboot dimension
   EREF     =   0.00    reference energy to select bands
   IMIX   =      4    mixing-type and parameters
     AMIX     =   0.40;   BMIX     =  1.00
     AMIX_MAG =   1.60;   BMIX_MAG =  1.00
     AMIN     =   0.01
     WC   =   100.;   INIMIX=   1;  MIXPRE=   1;  MAXMIX= -45

 Intra band minimization:
   WEIMIN = 0.0000     energy-eigenvalue tresh-hold
   EBREAK =  0.14E-08  absolut break condition
   DEPER  =   0.30     relativ break condition  

   TIME   =   0.40     timestep for ELM

  volume/ion in A,a.u.               =      28.36       191.36
  Fermi-wavevector in a.u.,A,eV,Ry     =   1.046172  1.976978 14.891247  1.094476
  Thomas-Fermi vector in A             =   2.180999
 
 Write flags
   LWAVE  =      F    write WAVECAR
   LCHARG =      T    write CHGCAR
   LVTOT  =      F    write LOCPOT, total local potential
   LVHAR  =      T    write LOCPOT, Hartree potential only
   LELF   =      F    write electronic localiz. function (ELF)
   LORBIT =     12    0 simple, 1 ext, 2 COOP (PROOUT)


 Dipole corrections
   LMONO  =      F    monopole corrections only (constant potential shift)
   LDIPOL =      F    correct potential (dipole corrections)
   IDIPOL =      0    1-x, 2-y, 3-z, 4-all directions 
   EPSILON=  1.0000000 bulk dielectric constant

 Exchange correlation treatment:
   GGA     =    --    GGA type
   LEXCH   =     8    internal setting for exchange type
   VOSKOWN=      0    Vosko Wilk Nusair interpolation
   LHFCALC =     F    Hartree Fock is set to
   LHFONE  =     F    Hartree Fock one center treatment
   AEXX    =    0.0000 exact exchange contribution

 Linear response parameters
   LEPSILON=     F    determine dielectric tensor
   LRPA    =     F    only Hartree local field effects (RPA)
   LNABLA  =     F    use nabla operator in PAW spheres
   LVEL    =     F    velocity operator in full k-point grid
   LINTERFAST=   F  fast interpolation
   KINTER  =     0    interpolate to denser k-point grid
   CSHIFT  =0.1000    complex shift for real part using Kramers Kronig
   OMEGAMAX=  -1.0    maximum frequency
   DEG_THRESHOLD= 0.2000000E-02 threshold for treating states as degnerate
   RTIME   =    0.100 relaxation time in fs

 Orbital magnetization related:
   ORBITALMAG=     F  switch on orbital magnetization
   LCHIMAG   =     F  perturbation theory with respect to B field
   DQ        =  0.001000  dq finite difference perturbation B field



--------------------------------------------------------------------------------------------------------


 Static calculation
 charge density and potential will be updated during run
 non collinear spin polarized calculation
 RMM-DIIS sequential band-by-band and
  variant of blocked Davidson during initial phase
 perform sub-space diagonalisation
    before iterative eigenvector-optimisation
 modified Broyden-mixing scheme, WC =      100.0
 initial mixing is a Kerker type mixing with AMIX =  0.4000 and BMIX =      1.0000
 Hartree-type preconditioning will be used
 using additional bands          139
 reciprocal scheme for non local part
 use partial core corrections
 calculate Harris-corrections to forces 
   (improved forces if not selfconsistent)
 use gradient corrections 
 use of overlap-Matrix (Vanderbilt PP)
 Gauss-broadening in eV      SIGMA  =   0.05


--------------------------------------------------------------------------------------------------------


  energy-cutoff  :      364.00
  volume of cell :      283.56
      direct lattice vectors                 reciprocal lattice vectors
     5.214415749  5.214415749  0.000000000     0.095888020  0.095888020  0.095888020
     5.214415749  0.000000000 -5.214415749     0.095888020 -0.095888020 -0.095888020
     0.000000000  5.214415749 -5.214415749    -0.095888020  0.095888020 -0.095888020

  length of vectors
     7.374297472  7.374297472  7.374297472     0.166082922  0.166082922  0.166082922


 
 k-points in units of 2pi/SCALE and weight: k-points along high symmetry lines      
   0.00000000  0.00000000  0.00000000       0.007
   0.00000000  0.00330648  0.00000000       0.007
   0.00000000  0.00661297  0.00000000       0.007
   0.00000000  0.00991945  0.00000000       0.007
   0.00000000  0.01322593  0.00000000       0.007
   0.00000000  0.01653242  0.00000000       0.007
   0.00000000  0.01983890  0.00000000       0.007
   0.00000000  0.02314538  0.00000000       0.007
   0.00000000  0.02645187  0.00000000       0.007
   0.00000000  0.02975835  0.00000000       0.007
   0.00000000  0.03306483  0.00000000       0.007
   0.00000000  0.03637132  0.00000000       0.007
   0.00000000  0.03967780  0.00000000       0.007
   0.00000000  0.04298428  0.00000000       0.007
   0.00000000  0.04629077  0.00000000       0.007
   0.00000000  0.04959725  0.00000000       0.007
   0.00000000  0.05290374  0.00000000       0.007
   0.00000000  0.05621022  0.00000000       0.007
   0.00000000  0.05951670  0.00000000       0.007
   0.00000000  0.06282319  0.00000000       0.007
   0.00000000  0.06612967  0.00000000       0.007
   0.00000000  0.06943615  0.00000000       0.007
   0.00000000  0.07274264  0.00000000       0.007
   0.00000000  0.07604912  0.00000000       0.007
   0.00000000  0.07935560  0.00000000       0.007
   0.00000000  0.08266209  0.00000000       0.007
   0.00000000  0.08596857  0.00000000       0.007
   0.00000000  0.08927505  0.00000000       0.007
   0.00000000  0.09258154  0.00000000       0.007
   0.00000000  0.09588802  0.00000000       0.007
   0.00000000  0.09588802  0.00000000       0.007
   0.00000000  0.09588802 -0.00165324       0.007
  -0.00000000  0.09588802 -0.00330648       0.007
   0.00000000  0.09588802 -0.00495973       0.007
   0.00000000  0.09588802 -0.00661297       0.007
   0.00000000  0.09588802 -0.00826621       0.007
   0.00000000  0.09588802 -0.00991945       0.007
   0.00000000  0.09588802 -0.01157269       0.007
   0.00000000  0.09588802 -0.01322593       0.007
   0.00000000  0.09588802 -0.01487918       0.007
  -0.00000000  0.09588802 -0.01653242       0.007
  -0.00000000  0.09588802 -0.01818566       0.007
   0.00000000  0.09588802 -0.01983890       0.007
   0.00000000  0.09588802 -0.02149214       0.007
   0.00000000  0.09588802 -0.02314538       0.007
   0.00000000  0.09588802 -0.02479863       0.007
  -0.00000000  0.09588802 -0.02645187       0.007
  -0.00000000  0.09588802 -0.02810511       0.007
   0.00000000  0.09588802 -0.02975835       0.007
   0.00000000  0.09588802 -0.03141159       0.007
   0.00000000  0.09588802 -0.03306483       0.007
   0.00000000  0.09588802 -0.03471808       0.007
   0.00000000  0.09588802 -0.03637132       0.007
   0.00000000  0.09588802 -0.03802456       0.007
   0.00000000  0.09588802 -0.03967780       0.007
   0.00000000  0.09588802 -0.04133104       0.007
   0.00000000  0.09588802 -0.04298428       0.007
   0.00000000  0.09588802 -0.04463753       0.007
  -0.00000000  0.09588802 -0.04629077       0.007
   0.00000000  0.09588802 -0.04794401       0.007
   0.00000000  0.09588802 -0.04794401       0.007
   0.00000000  0.09506140 -0.04877063       0.007
   0.00000000  0.09423478 -0.04959725       0.007
   0.00000000  0.09340816 -0.05042387       0.007
   0.00000000  0.09258154 -0.05125049       0.007
   0.00000000  0.09175492 -0.05207711       0.007
   0.00000000  0.09092829 -0.05290374       0.007
   0.00000000  0.09010167 -0.05373036       0.007
   0.00000000  0.08927505 -0.05455698       0.007
   0.00000000  0.08844843 -0.05538360       0.007
   0.00000000  0.08762181 -0.05621022       0.007
   0.00000000  0.08679519 -0.05703684       0.007
   0.00000000  0.08596857 -0.05786346       0.007
   0.00000000  0.08514195 -0.05869008       0.007
   0.00000000  0.08431533 -0.05951670       0.007
   0.00000000  0.08348871 -0.06034332       0.007
   0.00000000  0.08266209 -0.06116994       0.007
   0.00000000  0.08183547 -0.06199656       0.007
   0.00000000  0.08100884 -0.06282319       0.007
   0.00000000  0.08018222 -0.06364981       0.007
   0.00000000  0.07935560 -0.06447643       0.007
   0.00000000  0.07852898 -0.06530305       0.007
   0.00000000  0.07770236 -0.06612967       0.007
   0.00000000  0.07687574 -0.06695629       0.007
   0.00000000  0.07604912 -0.06778291       0.007
   0.00000000  0.07522250 -0.06860953       0.007
   0.00000000  0.07439588 -0.06943615       0.007
   0.00000000  0.07356926 -0.07026277       0.007
   0.00000000  0.07274264 -0.07108939       0.007
   0.00000000  0.07191601 -0.07191601       0.007
   0.00000000  0.07191601 -0.07191601       0.007
   0.00000000  0.06943615 -0.06943615       0.007
   0.00000000  0.06695629 -0.06695629       0.007
   0.00000000  0.06447643 -0.06447643       0.007
   0.00000000  0.06199656 -0.06199656       0.007
   0.00000000  0.05951670 -0.05951670       0.007
   0.00000000  0.05703684 -0.05703684       0.007
   0.00000000  0.05455698 -0.05455698       0.007
   0.00000000  0.05207711 -0.05207711       0.007
   0.00000000  0.04959725 -0.04959725       0.007
   0.00000000  0.04711739 -0.04711739       0.007
   0.00000000  0.04463753 -0.04463753       0.007
   0.00000000  0.04215766 -0.04215766       0.007
   0.00000000  0.03967780 -0.03967780       0.007
   0.00000000  0.03719794 -0.03719794       0.007
   0.00000000  0.03471808 -0.03471808       0.007
   0.00000000  0.03223821 -0.03223821       0.007
   0.00000000  0.02975835 -0.02975835       0.007
   0.00000000  0.02727849 -0.02727849       0.007
   0.00000000  0.02479863 -0.02479863       0.007
   0.00000000  0.02231876 -0.02231876       0.007
   0.00000000  0.01983890 -0.01983890       0.007
   0.00000000  0.01735904 -0.01735904       0.007
   0.00000000  0.01487918 -0.01487918       0.007
   0.00000000  0.01239931 -0.01239931       0.007
   0.00000000  0.00991945 -0.00991945       0.007
   0.00000000  0.00743959 -0.00743959       0.007
   0.00000000  0.00495973 -0.00495973       0.007
   0.00000000  0.00247986 -0.00247986       0.007
   0.00000000  0.00000000  0.00000000       0.007
   0.00000000  0.00000000  0.00000000       0.007
   0.00165324  0.00165324 -0.00165324       0.007
   0.00330648  0.00330648 -0.00330648       0.007
   0.00495973  0.00495973 -0.00495973       0.007
   0.00661297  0.00661297 -0.00661297       0.007
   0.00826621  0.00826621 -0.00826621       0.007
   0.00991945  0.00991945 -0.00991945       0.007
   0.01157269  0.01157269 -0.01157269       0.007
   0.01322593  0.01322593 -0.01322593       0.007
   0.01487918  0.01487918 -0.01487918       0.007
   0.01653242  0.01653242 -0.01653242       0.007
   0.01818566  0.01818566 -0.01818566       0.007
   0.01983890  0.01983890 -0.01983890       0.007
   0.02149214  0.02149214 -0.02149214       0.007
   0.02314538  0.02314538 -0.02314538       0.007
   0.02479863  0.02479863 -0.02479863       0.007
   0.02645187  0.02645187 -0.02645187       0.007
   0.02810511  0.02810511 -0.02810511       0.007
   0.02975835  0.02975835 -0.02975835       0.007
   0.03141159  0.03141159 -0.03141159       0.007
   0.03306483  0.03306483 -0.03306483       0.007
   0.03471808  0.03471808 -0.03471808       0.007
   0.03637132  0.03637132 -0.03637132       0.007
   0.03802456  0.03802456 -0.03802456       0.007
   0.03967780  0.03967780 -0.03967780       0.007
   0.04133104  0.04133104 -0.04133104       0.007
   0.04298428  0.04298428 -0.04298428       0.007
   0.04463753  0.04463753 -0.04463753       0.007
   0.04629077  0.04629077 -0.04629077       0.007
   0.04794401  0.04794401 -0.04794401       0.007
 
 k-points in reciprocal lattice and weights: k-points along high symmetry lines      
   0.00000000  0.00000000  0.00000000       0.007
   0.01724138  0.00000000  0.01724138       0.007
   0.03448276  0.00000000  0.03448276       0.007
   0.05172414  0.00000000  0.05172414       0.007
   0.06896552  0.00000000  0.06896552       0.007
   0.08620690  0.00000000  0.08620690       0.007
   0.10344828  0.00000000  0.10344828       0.007
   0.12068966  0.00000000  0.12068966       0.007
   0.13793103  0.00000000  0.13793103       0.007
   0.15517241  0.00000000  0.15517241       0.007
   0.17241379  0.00000000  0.17241379       0.007
   0.18965517  0.00000000  0.18965517       0.007
   0.20689655  0.00000000  0.20689655       0.007
   0.22413793  0.00000000  0.22413793       0.007
   0.24137931  0.00000000  0.24137931       0.007
   0.25862069  0.00000000  0.25862069       0.007
   0.27586207  0.00000000  0.27586207       0.007
   0.29310345  0.00000000  0.29310345       0.007
   0.31034483  0.00000000  0.31034483       0.007
   0.32758621  0.00000000  0.32758621       0.007
   0.34482759  0.00000000  0.34482759       0.007
   0.36206897  0.00000000  0.36206897       0.007
   0.37931034  0.00000000  0.37931034       0.007
   0.39655172  0.00000000  0.39655172       0.007
   0.41379310  0.00000000  0.41379310       0.007
   0.43103448  0.00000000  0.43103448       0.007
   0.44827586  0.00000000  0.44827586       0.007
   0.46551724  0.00000000  0.46551724       0.007
   0.48275862  0.00000000  0.48275862       0.007
   0.50000000  0.00000000  0.50000000       0.007
   0.50000000  0.00000000  0.50000000       0.007
   0.50000000  0.00862069  0.50862069       0.007
   0.50000000  0.01724138  0.51724138       0.007
   0.50000000  0.02586207  0.52586207       0.007
   0.50000000  0.03448276  0.53448276       0.007
   0.50000000  0.04310345  0.54310345       0.007
   0.50000000  0.05172414  0.55172414       0.007
   0.50000000  0.06034483  0.56034483       0.007
   0.50000000  0.06896552  0.56896552       0.007
   0.50000000  0.07758621  0.57758621       0.007
   0.50000000  0.08620690  0.58620690       0.007
   0.50000000  0.09482759  0.59482759       0.007
   0.50000000  0.10344828  0.60344828       0.007
   0.50000000  0.11206897  0.61206897       0.007
   0.50000000  0.12068966  0.62068966       0.007
   0.50000000  0.12931034  0.62931034       0.007
   0.50000000  0.13793103  0.63793103       0.007
   0.50000000  0.14655172  0.64655172       0.007
   0.50000000  0.15517241  0.65517241       0.007
   0.50000000  0.16379310  0.66379310       0.007
   0.50000000  0.17241379  0.67241379       0.007
   0.50000000  0.18103448  0.68103448       0.007
   0.50000000  0.18965517  0.68965517       0.007
   0.50000000  0.19827586  0.69827586       0.007
   0.50000000  0.20689655  0.70689655       0.007
   0.50000000  0.21551724  0.71551724       0.007
   0.50000000  0.22413793  0.72413793       0.007
   0.50000000  0.23275862  0.73275862       0.007
   0.50000000  0.24137931  0.74137931       0.007
   0.50000000  0.25000000  0.75000000       0.007
   0.50000000  0.25000000  0.75000000       0.007
   0.49568966  0.25431034  0.75000000       0.007
   0.49137931  0.25862069  0.75000000       0.007
   0.48706897  0.26293103  0.75000000       0.007
   0.48275862  0.26724138  0.75000000       0.007
   0.47844828  0.27155172  0.75000000       0.007
   0.47413793  0.27586207  0.75000000       0.007
   0.46982759  0.28017241  0.75000000       0.007
   0.46551724  0.28448276  0.75000000       0.007
   0.46120690  0.28879310  0.75000000       0.007
   0.45689655  0.29310345  0.75000000       0.007
   0.45258621  0.29741379  0.75000000       0.007
   0.44827586  0.30172414  0.75000000       0.007
   0.44396552  0.30603448  0.75000000       0.007
   0.43965517  0.31034483  0.75000000       0.007
   0.43534483  0.31465517  0.75000000       0.007
   0.43103448  0.31896552  0.75000000       0.007
   0.42672414  0.32327586  0.75000000       0.007
   0.42241379  0.32758621  0.75000000       0.007
   0.41810345  0.33189655  0.75000000       0.007
   0.41379310  0.33620690  0.75000000       0.007
   0.40948276  0.34051724  0.75000000       0.007
   0.40517241  0.34482759  0.75000000       0.007
   0.40086207  0.34913793  0.75000000       0.007
   0.39655172  0.35344828  0.75000000       0.007
   0.39224138  0.35775862  0.75000000       0.007
   0.38793103  0.36206897  0.75000000       0.007
   0.38362069  0.36637931  0.75000000       0.007
   0.37931034  0.37068966  0.75000000       0.007
   0.37500000  0.37500000  0.75000000       0.007
   0.37500000  0.37500000  0.75000000       0.007
   0.36206897  0.36206897  0.72413793       0.007
   0.34913793  0.34913793  0.69827586       0.007
   0.33620690  0.33620690  0.67241379       0.007
   0.32327586  0.32327586  0.64655172       0.007
   0.31034483  0.31034483  0.62068966       0.007
   0.29741379  0.29741379  0.59482759       0.007
   0.28448276  0.28448276  0.56896552       0.007
   0.27155172  0.27155172  0.54310345       0.007
   0.25862069  0.25862069  0.51724138       0.007
   0.24568966  0.24568966  0.49137931       0.007
   0.23275862  0.23275862  0.46551724       0.007
   0.21982759  0.21982759  0.43965517       0.007
   0.20689655  0.20689655  0.41379310       0.007
   0.19396552  0.19396552  0.38793103       0.007
   0.18103448  0.18103448  0.36206897       0.007
   0.16810345  0.16810345  0.33620690       0.007
   0.15517241  0.15517241  0.31034483       0.007
   0.14224138  0.14224138  0.28448276       0.007
   0.12931034  0.12931034  0.25862069       0.007
   0.11637931  0.11637931  0.23275862       0.007
   0.10344828  0.10344828  0.20689655       0.007
   0.09051724  0.09051724  0.18103448       0.007
   0.07758621  0.07758621  0.15517241       0.007
   0.06465517  0.06465517  0.12931034       0.007
   0.05172414  0.05172414  0.10344828       0.007
   0.03879310  0.03879310  0.07758621       0.007
   0.02586207  0.02586207  0.05172414       0.007
   0.01293103  0.01293103  0.02586207       0.007
   0.00000000  0.00000000  0.00000000       0.007
   0.00000000  0.00000000  0.00000000       0.007
   0.01724138  0.01724138  0.01724138       0.007
   0.03448276  0.03448276  0.03448276       0.007
   0.05172414  0.05172414  0.05172414       0.007
   0.06896552  0.06896552  0.06896552       0.007
   0.08620690  0.08620690  0.08620690       0.007
   0.10344828  0.10344828  0.10344828       0.007
   0.12068966  0.12068966  0.12068966       0.007
   0.13793103  0.13793103  0.13793103       0.007
   0.15517241  0.15517241  0.15517241       0.007
   0.17241379  0.17241379  0.17241379       0.007
   0.18965517  0.18965517  0.18965517       0.007
   0.20689655  0.20689655  0.20689655       0.007
   0.22413793  0.22413793  0.22413793       0.007
   0.24137931  0.24137931  0.24137931       0.007
   0.25862069  0.25862069  0.25862069       0.007
   0.27586207  0.27586207  0.27586207       0.007
   0.29310345  0.29310345  0.29310345       0.007
   0.31034483  0.31034483  0.31034483       0.007
   0.32758621  0.32758621  0.32758621       0.007
   0.34482759  0.34482759  0.34482759       0.007
   0.36206897  0.36206897  0.36206897       0.007
   0.37931034  0.37931034  0.37931034       0.007
   0.39655172  0.39655172  0.39655172       0.007
   0.41379310  0.41379310  0.41379310       0.007
   0.43103448  0.43103448  0.43103448       0.007
   0.44827586  0.44827586  0.44827586       0.007
   0.46551724  0.46551724  0.46551724       0.007
   0.48275862  0.48275862  0.48275862       0.007
   0.50000000  0.50000000  0.50000000       0.007
 
 position of ions in fractional coordinates (direct lattice) 
   0.00000000  0.00000000  0.00000000
   0.50000000  0.50000000  0.50000000
   0.25000000  0.25000000  0.25000000
   0.75000000  0.75000000  0.75000000
   0.51739485  0.51739485  0.98260515
   0.51739485  0.98260515  0.51739485
   0.51739485  0.98260515  0.98260515
   0.98260515  0.98260515  0.51739485
   0.98260515  0.51739485  0.98260515
   0.98260515  0.51739485  0.51739485
 
 position of ions in cartesian coordinates  (Angst):
   0.00000000  0.00000000  0.00000000
   5.21441575  5.21441575 -5.21441575
   2.60720787  2.60720787 -2.60720787
   7.82162362  7.82162362 -7.82162362
   5.39582371  7.82162362 -7.82162362
   7.82162362  5.39582371 -7.82162362
   7.82162362  7.82162362-10.24742354
  10.24742354  7.82162362 -7.82162362
   7.82162362 10.24742354 -7.82162362
   7.82162362  7.82162362 -5.39582371
 
 Euler angles ALPHA=     0.0000000  BETA=     0.0000000

 transformation matrix from SAXIS to cartesian coordinates
 ---------------------------------------------------------
     1.0000000 m_x     0.0000000 m_y     0.0000000 m_z
     0.0000000 m_x     1.0000000 m_y     0.0000000 m_z
     0.0000000 m_x     0.0000000 m_y     1.0000000 m_z

 transformation matrix from cartesian coordinates to SAXIS
 ---------------------------------------------------------
     1.0000000 m_x     0.0000000 m_y     0.0000000 m_z
     0.0000000 m_x     1.0000000 m_y     0.0000000 m_z
     0.0000000 m_x     0.0000000 m_y     1.0000000 m_z




--------------------------------------------------------------------------------------------------------


 k-point  1 :   0.0000 0.0000 0.0000  plane waves:    8954
 k-point  2 :   0.0172 0.0000 0.0172  plane waves:    8978
 k-point  3 :   0.0345 0.0000 0.0345  plane waves:    9018
 k-point  4 :   0.0517 0.0000 0.0517  plane waves:    9010
 k-point  5 :   0.0690 0.0000 0.0690  plane waves:    8986
 k-point  6 :   0.0862 0.0000 0.0862  plane waves:    8946
 k-point  7 :   0.1034 0.0000 0.1034  plane waves:    8962
 k-point  8 :   0.1207 0.0000 0.1207  plane waves:    8976
 k-point  9 :   0.1379 0.0000 0.1379  plane waves:    8976
 k-point 10 :   0.1552 0.0000 0.1552  plane waves:    9000
 k-point 11 :   0.1724 0.0000 0.1724  plane waves:    9000
 k-point 12 :   0.1897 0.0000 0.1897  plane waves:    9008
 k-point 13 :   0.2069 0.0000 0.2069  plane waves:    9008
 k-point 14 :   0.2241 0.0000 0.2241  plane waves:    9024
 k-point 15 :   0.2414 0.0000 0.2414  plane waves:    9040
 k-point 16 :   0.2586 0.0000 0.2586  plane waves:    9040
 k-point 17 :   0.2759 0.0000 0.2759  plane waves:    8992
 k-point 18 :   0.2931 0.0000 0.2931  plane waves:    9008
 k-point 19 :   0.3103 0.0000 0.3103  plane waves:    8992
 k-point 20 :   0.3276 0.0000 0.3276  plane waves:    8928
 k-point 21 :   0.3448 0.0000 0.3448  plane waves:    8944
 k-point 22 :   0.3621 0.0000 0.3621  plane waves:    8960
 k-point 23 :   0.3793 0.0000 0.3793  plane waves:    8928
 k-point 24 :   0.3966 0.0000 0.3966  plane waves:    8904
 k-point 25 :   0.4138 0.0000 0.4138  plane waves:    8896
 k-point 26 :   0.4310 0.0000 0.4310  plane waves:    8920
 k-point 27 :   0.4483 0.0000 0.4483  plane waves:    8920
 k-point 28 :   0.4655 0.0000 0.4655  plane waves:    8920
 k-point 29 :   0.4828 0.0000 0.4828  plane waves:    8912
 k-point 30 :   0.5000 0.0000 0.5000  plane waves:    8912
 k-point 31 :   0.5000 0.0000 0.5000  plane waves:    8912
 k-point 32 :   0.5000 0.0086 0.5086  plane waves:    8912
 k-point 33 :   0.5000 0.0172 0.5172  plane waves:    8912
 k-point 34 :   0.5000 0.0259 0.5259  plane waves:    8904
 k-point 35 :   0.5000 0.0345 0.5345  plane waves:    8892
 k-point 36 :   0.5000 0.0431 0.5431  plane waves:    8880
 k-point 37 :   0.5000 0.0517 0.5517  plane waves:    8880
 k-point 38 :   0.5000 0.0603 0.5603  plane waves:    8888
 k-point 39 :   0.5000 0.0690 0.5690  plane waves:    8896
 k-point 40 :   0.5000 0.0776 0.5776  plane waves:    8904
 k-point 41 :   0.5000 0.0862 0.5862  plane waves:    8920
 k-point 42 :   0.5000 0.0948 0.5948  plane waves:    8916
 k-point 43 :   0.5000 0.1034 0.6034  plane waves:    8904
 k-point 44 :   0.5000 0.1121 0.6121  plane waves:    8904
 k-point 45 :   0.5000 0.1207 0.6207  plane waves:    8904
 k-point 46 :   0.5000 0.1293 0.6293  plane waves:    8912
 k-point 47 :   0.5000 0.1379 0.6379  plane waves:    8912
 k-point 48 :   0.5000 0.1466 0.6466  plane waves:    8920
 k-point 49 :   0.5000 0.1552 0.6552  plane waves:    8924
 k-point 50 :   0.5000 0.1638 0.6638  plane waves:    8932
 k-point 51 :   0.5000 0.1724 0.6724  plane waves:    8932
 k-point 52 :   0.5000 0.1810 0.6810  plane waves:    8916
 k-point 53 :   0.5000 0.1897 0.6897  plane waves:    8928
 k-point 54 :   0.5000 0.1983 0.6983  plane waves:    8928
 k-point 55 :   0.5000 0.2069 0.7069  plane waves:    8928
 k-point 56 :   0.5000 0.2155 0.7155  plane waves:    8920
 k-point 57 :   0.5000 0.2241 0.7241  plane waves:    8908
 k-point 58 :   0.5000 0.2328 0.7328  plane waves:    8908
 k-point 59 :   0.5000 0.2414 0.7414  plane waves:    8908
 k-point 60 :   0.5000 0.2500 0.7500  plane waves:    8840
 k-point 61 :   0.5000 0.2500 0.7500  plane waves:    8840
 k-point 62 :   0.4957 0.2543 0.7500  plane waves:    8888
 k-point 63 :   0.4914 0.2586 0.7500  plane waves:    8892
 k-point 64 :   0.4871 0.2629 0.7500  plane waves:    8892
 k-point 65 :   0.4828 0.2672 0.7500  plane waves:    8892
 k-point 66 :   0.4784 0.2716 0.7500  plane waves:    8892
 k-point 67 :   0.4741 0.2759 0.7500  plane waves:    8894
 k-point 68 :   0.4698 0.2802 0.7500  plane waves:    8902
 k-point 69 :   0.4655 0.2845 0.7500  plane waves:    8902
 k-point 70 :   0.4612 0.2888 0.7500  plane waves:    8898
 k-point 71 :   0.4569 0.2931 0.7500  plane waves:    8906
 k-point 72 :   0.4526 0.2974 0.7500  plane waves:    8904
 k-point 73 :   0.4483 0.3017 0.7500  plane waves:    8914
 k-point 74 :   0.4440 0.3060 0.7500  plane waves:    8918
 k-point 75 :   0.4397 0.3103 0.7500  plane waves:    8910
 k-point 76 :   0.4353 0.3147 0.7500  plane waves:    8914
 k-point 77 :   0.4310 0.3190 0.7500  plane waves:    8914
 k-point 78 :   0.4267 0.3233 0.7500  plane waves:    8918
 k-point 79 :   0.4224 0.3276 0.7500  plane waves:    8918
 k-point 80 :   0.4181 0.3319 0.7500  plane waves:    8918
 k-point 81 :   0.4138 0.3362 0.7500  plane waves:    8914
 k-point 82 :   0.4095 0.3405 0.7500  plane waves:    8914
 k-point 83 :   0.4052 0.3448 0.7500  plane waves:    8906
 k-point 84 :   0.4009 0.3491 0.7500  plane waves:    8918
 k-point 85 :   0.3966 0.3534 0.7500  plane waves:    8906
 k-point 86 :   0.3922 0.3578 0.7500  plane waves:    8906
 k-point 87 :   0.3879 0.3621 0.7500  plane waves:    8910
 k-point 88 :   0.3836 0.3664 0.7500  plane waves:    8894
 k-point 89 :   0.3793 0.3707 0.7500  plane waves:    8894
 k-point 90 :   0.3750 0.3750 0.7500  plane waves:    8908
 k-point 91 :   0.3750 0.3750 0.7500  plane waves:    8908
 k-point 92 :   0.3621 0.3621 0.7241  plane waves:    8908
 k-point 93 :   0.3491 0.3491 0.6983  plane waves:    8944
 k-point 94 :   0.3362 0.3362 0.6724  plane waves:    8932
 k-point 95 :   0.3233 0.3233 0.6466  plane waves:    8948
 k-point 96 :   0.3103 0.3103 0.6207  plane waves:    8928
 k-point 97 :   0.2974 0.2974 0.5948  plane waves:    8948
 k-point 98 :   0.2845 0.2845 0.5690  plane waves:    8956
 k-point 99 :   0.2716 0.2716 0.5431  plane waves:    8940
 k-point ** :   0.2586 0.2586 0.5172  plane waves:    8954
 k-point ** :   0.2457 0.2457 0.4914  plane waves:    8954
 k-point ** :   0.2328 0.2328 0.4655  plane waves:    8962
 k-point ** :   0.2198 0.2198 0.4397  plane waves:    8958
 k-point ** :   0.2069 0.2069 0.4138  plane waves:    8970
 k-point ** :   0.1940 0.1940 0.3879  plane waves:    8970
 k-point ** :   0.1810 0.1810 0.3621  plane waves:    8966
 k-point ** :   0.1681 0.1681 0.3362  plane waves:    8974
 k-point ** :   0.1552 0.1552 0.3103  plane waves:    8950
 k-point ** :   0.1422 0.1422 0.2845  plane waves:    8950
 k-point ** :   0.1293 0.1293 0.2586  plane waves:    8934
 k-point ** :   0.1164 0.1164 0.2328  plane waves:    8954
 k-point ** :   0.1034 0.1034 0.2069  plane waves:    8938
 k-point ** :   0.0905 0.0905 0.1810  plane waves:    8966
 k-point ** :   0.0776 0.0776 0.1552  plane waves:    8982
 k-point ** :   0.0647 0.0647 0.1293  plane waves:    8986
 k-point ** :   0.0517 0.0517 0.1034  plane waves:    9006
 k-point ** :   0.0388 0.0388 0.0776  plane waves:    9018
 k-point ** :   0.0259 0.0259 0.0517  plane waves:    9014
 k-point ** :   0.0129 0.0129 0.0259  plane waves:    8990
 k-point ** :   0.0000 0.0000 0.0000  plane waves:    8954
 k-point ** :   0.0000 0.0000 0.0000  plane waves:    8954
 k-point ** :   0.0172 0.0172 0.0172  plane waves:    8972
 k-point ** :   0.0345 0.0345 0.0345  plane waves:    9014
 k-point ** :   0.0517 0.0517 0.0517  plane waves:    9038
 k-point ** :   0.0690 0.0690 0.0690  plane waves:    9026
 k-point ** :   0.0862 0.0862 0.0862  plane waves:    9014
 k-point ** :   0.1034 0.1034 0.1034  plane waves:    8984
 k-point ** :   0.1207 0.1207 0.1207  plane waves:    8978
 k-point ** :   0.1379 0.1379 0.1379  plane waves:    8966
 k-point ** :   0.1552 0.1552 0.1552  plane waves:    8978
 k-point ** :   0.1724 0.1724 0.1724  plane waves:    8972
 k-point ** :   0.1897 0.1897 0.1897  plane waves:    8984
 k-point ** :   0.2069 0.2069 0.2069  plane waves:    8984
 k-point ** :   0.2241 0.2241 0.2241  plane waves:    8990
 k-point ** :   0.2414 0.2414 0.2414  plane waves:    8990
 k-point ** :   0.2586 0.2586 0.2586  plane waves:    8978
 k-point ** :   0.2759 0.2759 0.2759  plane waves:    8978
 k-point ** :   0.2931 0.2931 0.2931  plane waves:    8942
 k-point ** :   0.3103 0.3103 0.3103  plane waves:    8966
 k-point ** :   0.3276 0.3276 0.3276  plane waves:    8924
 k-point ** :   0.3448 0.3448 0.3448  plane waves:    8924
 k-point ** :   0.3621 0.3621 0.3621  plane waves:    8930
 k-point ** :   0.3793 0.3793 0.3793  plane waves:    8940
 k-point ** :   0.3966 0.3966 0.3966  plane waves:    8952
 k-point ** :   0.4138 0.4138 0.4138  plane waves:    8976
 k-point ** :   0.4310 0.4310 0.4310  plane waves:    8958
 k-point ** :   0.4483 0.4483 0.4483  plane waves:    8958
 k-point ** :   0.4655 0.4655 0.4655  plane waves:    8934
 k-point ** :   0.4828 0.4828 0.4828  plane waves:    8946
 k-point ** :   0.5000 0.5000 0.5000  plane waves:    8952

 maximum and minimum number of plane-waves per node :      1860     1738

 maximum number of plane-waves:      9040
 maximum index in each direction: 
   IXMAX=   11   IYMAX=   11   IZMAX=   11
   IXMIN=  -11   IYMIN=  -11   IZMIN=  -12

 WARNING: aliasing errors must be expected set NGX to  46 to avoid them
 WARNING: aliasing errors must be expected set NGY to  46 to avoid them
 WARNING: aliasing errors must be expected set NGZ to  48 to avoid them
 aliasing errors are usually negligible using standard VASP settings
 and one can safely disregard these warnings

 parallel 3D FFT for wavefunctions:
    minimum data exchange during FFTs selected (reduces bandwidth)
 parallel 3D FFT for charge:
    minimum data exchange during FFTs selected (reduces bandwidth)


 total amount of memory used by VASP on root node   318417. kBytes
========================================================================

   base      :      30000. kBytes
   nonl-proj :      78250. kBytes
   fftplans  :       6238. kBytes
   grid      :       6967. kBytes
   one-center:        124. kBytes
   wavefun   :     196838. kBytes
 
     INWAV:  cpu time    0.00: real time    0.00
 Broyden mixing: mesh for mixing (old mesh)
   NGX = 23   NGY = 23   NGZ = 23
  (NGX  = 72   NGY  = 72   NGZ  = 72)
  gives a total of  12167 points

 initial charge density was supplied:
 charge density of overlapping atoms calculated
 number of electron      74.0000000 magnetization       0.0000000      0.0000000      0.0000000
 keeping initial charge density in first step


--------------------------------------------------------------------------------------------------------


 Maximum index for augmentation-charges         4688 (set IRDMAX)


--------------------------------------------------------------------------------------------------------


 First call to EWALD:  gamma=   0.270
 Maximum number of real-space cells 3x 3x 3
 Maximum number of reciprocal cells 3x 3x 3

 FEWALD executed in parallel
    FEWALD:  cpu time    0.00: real time    0.00


----------------------------------------- Iteration    1(   1)  ---------------------------------------


    POTLOK:  cpu time    0.08: real time    0.08
    SETDIJ:  cpu time    0.13: real time    0.13
     EDDAV:  cpu time   69.72: real time   69.89
       DOS:  cpu time    0.01: real time    0.01
    --------------------------------------------
      LOOP:  cpu time   69.95: real time   70.12

 eigenvalue-minimisations  : 52800
 total energy-change (2. order) : 0.3901549E+03  (-0.2403676E+04)
 number of electron      74.0000000 magnetization       0.0000000      0.0000000      0.0000000
 augmentation part       74.0000000 magnetization       0.0000000      0.0000000      0.0000000

 Free energy of the ion-electron system (eV)
  ---------------------------------------------------
  alpha Z        PSCENC =       209.13784418
  Ewald energy   TEWEN  =     -3747.35905186
  -Hartree energ DENC   =      -960.04361280
  -exchange      EXHF   =         0.00000000
  -V(xc)+E(xc)   XCENC  =       111.15203267
  PAW double counting   =      1876.58292928    -1795.69339708
  entropy T*S    EENTRO =        -0.00420882
  eigenvalues    EBANDS =        30.46816647
  atomic energy  EATOM  =      4665.91418857
  ---------------------------------------------------
  free energy    TOTEN  =       390.15489060 eV

  energy without entropy =      390.15909943  energy(sigma->0) =      390.15699501


--------------------------------------------------------------------------------------------------------




----------------------------------------- Iteration    1(   2)  ---------------------------------------


     EDDAV:  cpu time   79.54: real time   79.74
       DOS:  cpu time    0.01: real time    0.01
    --------------------------------------------
      LOOP:  cpu time   79.56: real time   79.76

 eigenvalue-minimisations  : 63152
 total energy-change (2. order) :-0.3964934E+03  (-0.3723886E+03)
 number of electron      74.0000000 magnetization       0.0000000      0.0000000      0.0000000
 augmentation part       74.0000000 magnetization       0.0000000      0.0000000      0.0000000

 Free energy of the ion-electron system (eV)
  ---------------------------------------------------
  alpha Z        PSCENC =       209.13784418
  Ewald energy   TEWEN  =     -3747.35905186
  -Hartree energ DENC   =      -960.04361280
  -exchange      EXHF   =         0.00000000
  -V(xc)+E(xc)   XCENC  =       111.15203267
  PAW double counting   =      1876.58292928    -1795.69339708
  entropy T*S    EENTRO =        -0.00823603
  eigenvalues    EBANDS =      -366.02117809
  atomic energy  EATOM  =      4665.91418857
  ---------------------------------------------------
  free energy    TOTEN  =        -6.33848116 eV

  energy without entropy =       -6.33024513  energy(sigma->0) =       -6.33436315


--------------------------------------------------------------------------------------------------------




----------------------------------------- Iteration    1(   3)  ---------------------------------------


     EDDAV:  cpu time   80.03: real time   80.22
       DOS:  cpu time    0.01: real time    0.02
    --------------------------------------------
      LOOP:  cpu time   80.04: real time   80.24

 eigenvalue-minimisations  : 63608
 total energy-change (2. order) :-0.3029524E+02  (-0.2990533E+02)
 number of electron      74.0000000 magnetization       0.0000000      0.0000000      0.0000000
 augmentation part       74.0000000 magnetization       0.0000000      0.0000000      0.0000000

 Free energy of the ion-electron system (eV)
  ---------------------------------------------------
  alpha Z        PSCENC =       209.13784418
  Ewald energy   TEWEN  =     -3747.35905186
  -Hartree energ DENC   =      -960.04361280
  -exchange      EXHF   =         0.00000000
  -V(xc)+E(xc)   XCENC  =       111.15203267
  PAW double counting   =      1876.58292928    -1795.69339708
  entropy T*S    EENTRO =        -0.01459025
  eigenvalues    EBANDS =      -396.31006142
  atomic energy  EATOM  =      4665.91418857
  ---------------------------------------------------
  free energy    TOTEN  =       -36.63371872 eV

  energy without entropy =      -36.61912847  energy(sigma->0) =      -36.62642359


--------------------------------------------------------------------------------------------------------




----------------------------------------- Iteration    1(   4)  ---------------------------------------


     EDDAV:  cpu time   78.90: real time   79.10
       DOS:  cpu time    0.01: real time    0.01
    --------------------------------------------
      LOOP:  cpu time   78.92: real time   79.12

 eigenvalue-minimisations  : 62384
 total energy-change (2. order) :-0.3210759E+00  (-0.3208809E+00)
 number of electron      74.0000000 magnetization       0.0000000      0.0000000      0.0000000
 augmentation part       74.0000000 magnetization       0.0000000      0.0000000      0.0000000

 Free energy of the ion-electron system (eV)
  ---------------------------------------------------
  alpha Z        PSCENC =       209.13784418
  Ewald energy   TEWEN  =     -3747.35905186
  -Hartree energ DENC   =      -960.04361280
  -exchange      EXHF   =         0.00000000
  -V(xc)+E(xc)   XCENC  =       111.15203267
  PAW double counting   =      1876.58292928    -1795.69339708
  entropy T*S    EENTRO =        -0.01464354
  eigenvalues    EBANDS =      -396.63108403
  atomic energy  EATOM  =      4665.91418857
  ---------------------------------------------------
  free energy    TOTEN  =       -36.95479461 eV

  energy without entropy =      -36.94015107  energy(sigma->0) =      -36.94747284


--------------------------------------------------------------------------------------------------------




----------------------------------------- Iteration    1(   5)  ---------------------------------------


     EDDAV:  cpu time   81.69: real time   81.86
       DOS:  cpu time    0.01: real time    0.01
 


 total charge     
 
# of ion     s       p       d       tot
----------------------------------------
  1        1.845   4.684   0.015   6.544
  2        1.845   4.684   0.015   6.544
  3        0.525   0.135   8.304   8.964
  4        0.914   0.755   0.195   1.865
  5        1.617   3.608   0.000   5.225
  6        1.617   3.612   0.000   5.229
  7        1.617   3.638   0.000   5.256
  8        1.617   3.608   0.000   5.225
  9        1.617   3.612   0.000   5.229
 10        1.617   3.638   0.000   5.256
------------------------------------------------
tot       14.833  31.974   8.530  55.337
 


 magnetization (x)
 
# of ion     s       p       d       tot
----------------------------------------
  1       -0.000   0.000   0.000  -0.000
  2        0.000   0.000  -0.000   0.000
  3       -0.000  -0.000  -0.000  -0.000
  4        0.000   0.000  -0.000   0.000
  5       -0.000   0.000   0.000   0.000
  6        0.000  -0.000   0.000  -0.000
  7        0.000  -0.000   0.000  -0.000
  8        0.000  -0.000   0.000  -0.000
  9       -0.000   0.000   0.000   0.000
 10       -0.000   0.000   0.000   0.000
------------------------------------------------
tot       -0.000  -0.000  -0.000  -0.000
 


 magnetization (y)
 
# of ion     s       p       d       tot
----------------------------------------
  1       -0.000  -0.000  -0.000  -0.000
  2        0.000   0.000   0.000   0.000
  3        0.000  -0.000  -0.000  -0.000
  4       -0.000   0.000  -0.000  -0.000
  5       -0.000   0.000   0.000  -0.000
  6        0.000  -0.000   0.000  -0.000
  7        0.000  -0.000   0.000  -0.000
  8        0.000  -0.000   0.000   0.000
  9       -0.000   0.000   0.000   0.000
 10       -0.000   0.000   0.000   0.000
------------------------------------------------
tot       -0.000  -0.000  -0.000  -0.000
 


 magnetization (z)
 
# of ion     s       p       d       tot
----------------------------------------
  1       -0.000  -0.000  -0.000  -0.000
  2        0.000   0.000   0.000   0.000
  3       -0.000  -0.000   0.000   0.000
  4        0.000  -0.000   0.000   0.000
  5       -0.000   0.000   0.000   0.000
  6       -0.000   0.000   0.000   0.000
  7        0.000  -0.000   0.000  -0.000
  8        0.000  -0.000   0.000  -0.000
  9        0.000  -0.000   0.000  -0.000
 10       -0.000   0.000   0.000   0.000
------------------------------------------------
tot        0.000   0.000   0.000   0.000
 
    CHARGE:  cpu time    2.15: real time    2.15
    MIXING:  cpu time    0.00: real time    0.00
    --------------------------------------------
      LOOP:  cpu time   83.90: real time   84.08

 eigenvalue-minimisations  : 65352
 total energy-change (2. order) :-0.4050738E-02  (-0.4050394E-02)
 number of electron      73.9999999 magnetization      -0.0000238     -0.0000335      0.0000230
 augmentation part       -4.9760964 magnetization      -0.0000283     -0.0000148      0.0000124

 Broyden mixing:
  rms(total) = 0.56637E+00    rms(broyden)= 0.56610E+00
  rms(prec ) = 0.10591E+01
  weight for this iteration     100.00

 Free energy of the ion-electron system (eV)
  ---------------------------------------------------
  alpha Z        PSCENC =       209.13784418
  Ewald energy   TEWEN  =     -3747.35905186
  -Hartree energ DENC   =      -960.04361280
  -exchange      EXHF   =         0.00000000
  -V(xc)+E(xc)   XCENC  =       111.15203267
  PAW double counting   =      1876.58292928    -1795.69339708
  entropy T*S    EENTRO =        -0.01464412
  eigenvalues    EBANDS =      -396.63513419
  atomic energy  EATOM  =      4665.91418857
  ---------------------------------------------------
  free energy    TOTEN  =       -36.95884535 eV

  energy without entropy =      -36.94420123  energy(sigma->0) =      -36.95152329


--------------------------------------------------------------------------------------------------------




----------------------------------------- Iteration    1(   6)  ---------------------------------------


    POTLOK:  cpu time    0.08: real time    0.08
    SETDIJ:  cpu time    0.13: real time    0.13
    EDDIAG:  cpu time   13.63: real time   13.66
  RMM-DIIS:  cpu time   37.68: real time   37.74
    ORTHCH:  cpu time    2.19: real time    2.19
       DOS:  cpu time    0.01: real time    0.02
    CHARGE:  cpu time    2.15: real time    2.15
    MIXING:  cpu time    0.00: real time    0.00
    --------------------------------------------
      LOOP:  cpu time   55.88: real time   55.98

 eigenvalue-minimisations  : 54093
 total energy-change (2. order) : 0.6627432E+01  (-0.5942070E+00)
 number of electron      73.9999999 magnetization      -0.0000851     -0.0001417      0.0000842
 augmentation part       -4.8513161 magnetization      -0.0000568     -0.0000670      0.0000361

 Broyden mixing:
  rms(total) = 0.29035E+00    rms(broyden)= 0.29020E+00
  rms(prec ) = 0.54966E+00
  weight for this iteration     100.00

 eigenvalues of (default mixing * dielectric matrix)
  average eigenvalue GAMMA=   1.1885
  1.1885

 Free energy of the ion-electron system (eV)
  ---------------------------------------------------
  alpha Z        PSCENC =       209.13784418
  Ewald energy   TEWEN  =     -3747.35905186
  -Hartree energ DENC   =      -970.83700985
  -exchange      EXHF   =         0.00000000
  -V(xc)+E(xc)   XCENC  =       112.58691717
  PAW double counting   =      2098.10771654    -2019.59797415
  entropy T*S    EENTRO =        -0.01128834
  eigenvalues    EBANDS =      -378.27275543
  atomic energy  EATOM  =      4665.91418857
  ---------------------------------------------------
  free energy    TOTEN  =       -30.33141317 eV

  energy without entropy =      -30.32012483  energy(sigma->0) =      -30.32576900


--------------------------------------------------------------------------------------------------------




----------------------------------------- Iteration    1(   7)  ---------------------------------------


    POTLOK:  cpu time    0.08: real time    0.08
    SETDIJ:  cpu time    0.13: real time    0.13
    EDDIAG:  cpu time   13.63: real time   13.65
  RMM-DIIS:  cpu time   39.87: real time   39.91
    ORTHCH:  cpu time    2.19: real time    2.19
       DOS:  cpu time    0.01: real time    0.01
    CHARGE:  cpu time    2.15: real time    2.15
    MIXING:  cpu time    0.00: real time    0.00
    --------------------------------------------
      LOOP:  cpu time   58.07: real time   58.13

 eigenvalue-minimisations  : 57429
 total energy-change (2. order) :-0.6384780E+00  (-0.2369236E+00)
 number of electron      73.9999999 magnetization      -0.0000302     -0.0000507      0.0000300
 augmentation part       -4.5901589 magnetization      -0.0000365     -0.0000552      0.0000323

 Broyden mixing:
  rms(total) = 0.18947E+00    rms(broyden)= 0.18940E+00
  rms(prec ) = 0.29890E+00
  weight for this iteration     100.00

 eigenvalues of (default mixing * dielectric matrix)
  average eigenvalue GAMMA=   1.0711
  0.8318  1.3103

 Free energy of the ion-electron system (eV)
  ---------------------------------------------------
  alpha Z        PSCENC =       209.13784418
  Ewald energy   TEWEN  =     -3747.35905186
  -Hartree energ DENC   =      -972.79027962
  -exchange      EXHF   =         0.00000000
  -V(xc)+E(xc)   XCENC  =       113.41896968
  PAW double counting   =      2424.61528363    -2346.63706940
  entropy T*S    EENTRO =        -0.00000000
  eigenvalues    EBANDS =      -377.26977640
  atomic energy  EATOM  =      4665.91418857
  ---------------------------------------------------
  free energy    TOTEN  =       -30.96989121 eV

  energy without entropy =      -30.96989121  energy(sigma->0) =      -30.96989121


--------------------------------------------------------------------------------------------------------




----------------------------------------- Iteration    1(   8)  ---------------------------------------


    POTLOK:  cpu time    0.08: real time    0.08
    SETDIJ:  cpu time    0.13: real time    0.13
    EDDIAG:  cpu time   13.63: real time   13.66
  RMM-DIIS:  cpu time   42.48: real time   42.55
    ORTHCH:  cpu time    2.19: real time    2.19
       DOS:  cpu time    0.01: real time    0.01
    CHARGE:  cpu time    2.15: real time    2.15
    MIXING:  cpu time    0.00: real time    0.00
    --------------------------------------------
      LOOP:  cpu time   60.67: real time   60.78

 eigenvalue-minimisations  : 61659
 total energy-change (2. order) :-0.4614570E+00  (-0.3404034E-01)
 number of electron      73.9999999 magnetization       0.0000161      0.0000271     -0.0000160
 augmentation part       -4.6529067 magnetization       0.0000170      0.0000307     -0.0000180

 Broyden mixing:
  rms(total) = 0.11892E+00    rms(broyden)= 0.11890E+00
  rms(prec ) = 0.17012E+00
  weight for this iteration     100.00

 eigenvalues of (default mixing * dielectric matrix)
  average eigenvalue GAMMA=   1.3049
  1.6170  1.6170  0.6806

 Free energy of the ion-electron system (eV)
  ---------------------------------------------------
  alpha Z        PSCENC =       209.13784418
  Ewald energy   TEWEN  =     -3747.35905186
  -Hartree energ DENC   =      -976.09102899
  -exchange      EXHF   =         0.00000000
  -V(xc)+E(xc)   XCENC  =       113.70793055
  PAW double counting   =      2550.26530208    -2471.46617143
  entropy T*S    EENTRO =        -0.00000000
  eigenvalues    EBANDS =      -375.54036130
  atomic energy  EATOM  =      4665.91418857
  ---------------------------------------------------
  free energy    TOTEN  =       -31.43134819 eV

  energy without entropy =      -31.43134819  energy(sigma->0) =      -31.43134819


--------------------------------------------------------------------------------------------------------




----------------------------------------- Iteration    1(   9)  ---------------------------------------


    POTLOK:  cpu time    0.08: real time    0.08
    SETDIJ:  cpu time    0.13: real time    0.13
    EDDIAG:  cpu time   13.58: real time   13.59
  RMM-DIIS:  cpu time   40.93: real time   41.03
    ORTHCH:  cpu time    2.19: real time    2.19
       DOS:  cpu time    0.01: real time    0.01
    CHARGE:  cpu time    2.15: real time    2.16
    MIXING:  cpu time    0.00: real time    0.00
    --------------------------------------------
      LOOP:  cpu time   59.09: real time   59.20

 eigenvalue-minimisations  : 59140
 total energy-change (2. order) :-0.4050323E+00  (-0.1976485E-01)
 number of electron      73.9999999 magnetization       0.0000060      0.0000100     -0.0000059
 augmentation part       -4.6744097 magnetization       0.0000062      0.0000095     -0.0000051

 Broyden mixing:
  rms(total) = 0.52543E-01    rms(broyden)= 0.52529E-01
  rms(prec ) = 0.76644E-01
  weight for this iteration     100.00

 eigenvalues of (default mixing * dielectric matrix)
  average eigenvalue GAMMA=   1.3731
  1.9379  1.9379  0.9131  0.7035

 Free energy of the ion-electron system (eV)
  ---------------------------------------------------
  alpha Z        PSCENC =       209.13784418
  Ewald energy   TEWEN  =     -3747.35905186
  -Hartree energ DENC   =      -977.30552439
  -exchange      EXHF   =         0.00000000
  -V(xc)+E(xc)   XCENC  =       113.95980540
  PAW double counting   =      2716.81422936    -2635.96617610
  entropy T*S    EENTRO =        -0.00000000
  eigenvalues    EBANDS =      -377.03169561
  atomic energy  EATOM  =      4665.91418857
  ---------------------------------------------------
  free energy    TOTEN  =       -31.83638045 eV

  energy without entropy =      -31.83638045  energy(sigma->0) =      -31.83638045


--------------------------------------------------------------------------------------------------------




----------------------------------------- Iteration    1(  10)  ---------------------------------------


    POTLOK:  cpu time    0.08: real time    0.08
    SETDIJ:  cpu time    0.13: real time    0.13
    EDDIAG:  cpu time   13.56: real time   13.57
  RMM-DIIS:  cpu time   42.33: real time   42.42
    ORTHCH:  cpu time    2.19: real time    2.20
       DOS:  cpu time    0.01: real time    0.01
 


 total charge     
 
# of ion     s       p       d       tot
----------------------------------------
  1        1.848   4.719   0.020   6.587
  2        1.848   4.719   0.020   6.587
  3        0.134   0.092   9.161   9.387
  4        0.890   0.887   0.241   2.018
  5        1.596   3.531   0.000   5.127
  6        1.597   3.526   0.000   5.123
  7        1.595   3.539   0.000   5.134
  8        1.596   3.531   0.000   5.127
  9        1.597   3.526   0.000   5.123
 10        1.595   3.539   0.000   5.134
------------------------------------------------
tot       14.295  31.610   9.442  55.347
 


 magnetization (x)
 
# of ion     s       p       d       tot
----------------------------------------
  1        0.000   0.000  -0.000   0.000
  2       -0.000  -0.000   0.000  -0.000
  3       -0.000   0.000  -0.000  -0.000
  4       -0.000  -0.000  -0.000  -0.000
  5        0.000   0.000   0.000   0.000
  6        0.000   0.000   0.000   0.000
  7        0.000   0.000   0.000   0.000
  8       -0.000  -0.000   0.000  -0.000
  9       -0.000  -0.000   0.000  -0.000
 10       -0.000  -0.000   0.000  -0.000
------------------------------------------------
tot        0.000   0.000  -0.000   0.000
 


 magnetization (y)
 
# of ion     s       p       d       tot
----------------------------------------
  1       -0.000  -0.000  -0.000  -0.000
  2        0.000   0.000   0.000   0.000
  3       -0.000  -0.000  -0.000  -0.000
  4        0.000  -0.000  -0.000   0.000
  5       -0.000  -0.000   0.000  -0.000
  6       -0.000   0.000   0.000   0.000
  7       -0.000  -0.000   0.000  -0.000
  8        0.000   0.000   0.000   0.000
  9        0.000  -0.000   0.000  -0.000
 10        0.000   0.000   0.000   0.000
------------------------------------------------
tot        0.000  -0.000  -0.000   0.000
 


 magnetization (z)
 
# of ion     s       p       d       tot
----------------------------------------
  1       -0.000  -0.000  -0.000  -0.000
  2        0.000   0.000   0.000   0.000
  3       -0.000   0.000   0.000   0.000
  4       -0.000   0.000   0.000   0.000
  5       -0.000  -0.000   0.000  -0.000
  6        0.000   0.000   0.000   0.000
  7       -0.000   0.000   0.000   0.000
  8        0.000   0.000   0.000   0.000
  9       -0.000  -0.000   0.000  -0.000
 10       -0.000  -0.000   0.000  -0.000
------------------------------------------------
tot       -0.000   0.000   0.000  -0.000
 
    CHARGE:  cpu time    2.15: real time    2.15
    MIXING:  cpu time    0.00: real time    0.00
    --------------------------------------------
      LOOP:  cpu time   60.51: real time   60.61

 eigenvalue-minimisations  : 61408
 total energy-change (2. order) :-0.5434328E-01  (-0.3189499E-02)
 number of electron      73.9999999 magnetization       0.0000004      0.0000007     -0.0000004
 augmentation part       -4.6589218 magnetization      -0.0000013     -0.0000017      0.0000017

 Broyden mixing:
  rms(total) = 0.25435E-01    rms(broyden)= 0.25430E-01
  rms(prec ) = 0.31347E-01
  weight for this iteration     100.00

 eigenvalues of (default mixing * dielectric matrix)
  average eigenvalue GAMMA=   1.3736
  2.5476  1.8553  1.0572  0.7754  0.6324

 Free energy of the ion-electron system (eV)
  ---------------------------------------------------
  alpha Z        PSCENC =       209.13784418
  Ewald energy   TEWEN  =     -3747.35905186
  -Hartree energ DENC   =      -977.53072241
  -exchange      EXHF   =         0.00000000
  -V(xc)+E(xc)   XCENC  =       114.08847409
  PAW double counting   =      2794.75606839    -2712.60252777
  entropy T*S    EENTRO =        -0.00000000
  eigenvalues    EBANDS =      -378.29499693
  atomic energy  EATOM  =      4665.91418857
  ---------------------------------------------------
  free energy    TOTEN  =       -31.89072373 eV

  energy without entropy =      -31.89072373  energy(sigma->0) =      -31.89072373


--------------------------------------------------------------------------------------------------------




----------------------------------------- Iteration    1(  11)  ---------------------------------------


    POTLOK:  cpu time    0.08: real time    0.08
    SETDIJ:  cpu time    0.13: real time    0.13
    EDDIAG:  cpu time   13.56: real time   13.57
  RMM-DIIS:  cpu time   45.26: real time   45.36
    ORTHCH:  cpu time    2.19: real time    2.19
       DOS:  cpu time    0.01: real time    0.01
    CHARGE:  cpu time    2.15: real time    2.15
    MIXING:  cpu time    0.00: real time    0.00
    --------------------------------------------
      LOOP:  cpu time   63.38: real time   63.50

 eigenvalue-minimisations  : 66432
 total energy-change (2. order) : 0.2858600E-03  (-0.9535365E-04)
 number of electron      73.9999999 magnetization      -0.0000021     -0.0000034      0.0000020
 augmentation part       -4.6560462 magnetization      -0.0000028     -0.0000044      0.0000029

 Broyden mixing:
  rms(total) = 0.97705E-02    rms(broyden)= 0.97697E-02
  rms(prec ) = 0.15711E-01
  weight for this iteration     100.00

 eigenvalues of (default mixing * dielectric matrix)
  average eigenvalue GAMMA=   1.4786
  2.5105  2.5105  1.2823  1.0962  0.8460  0.6261

 Free energy of the ion-electron system (eV)
  ---------------------------------------------------
  alpha Z        PSCENC =       209.13784418
  Ewald energy   TEWEN  =     -3747.35905186
  -Hartree energ DENC   =      -977.73363154
  -exchange      EXHF   =         0.00000000
  -V(xc)+E(xc)   XCENC  =       114.10844446
  PAW double counting   =      2798.54758280    -2716.18148626
  entropy T*S    EENTRO =        -0.00000000
  eigenvalues    EBANDS =      -378.32432822
  atomic energy  EATOM  =      4665.91418857
  ---------------------------------------------------
  free energy    TOTEN  =       -31.89043787 eV

  energy without entropy =      -31.89043787  energy(sigma->0) =      -31.89043787


--------------------------------------------------------------------------------------------------------




----------------------------------------- Iteration    1(  12)  ---------------------------------------


    POTLOK:  cpu time    0.08: real time    0.08
    SETDIJ:  cpu time    0.13: real time    0.13
    EDDIAG:  cpu time   13.58: real time   13.59
  RMM-DIIS:  cpu time   42.70: real time   42.80
    ORTHCH:  cpu time    2.19: real time    2.20
       DOS:  cpu time    0.01: real time    0.01
    CHARGE:  cpu time    2.15: real time    2.15
    MIXING:  cpu time    0.00: real time    0.00
    --------------------------------------------
      LOOP:  cpu time   60.85: real time   60.97

 eigenvalue-minimisations  : 61896
 total energy-change (2. order) : 0.1504262E-03  (-0.4815965E-04)
 number of electron      73.9999999 magnetization       0.0000003      0.0000006     -0.0000004
 augmentation part       -4.6566802 magnetization       0.0000000      0.0000004     -0.0000007

 Broyden mixing:
  rms(total) = 0.25315E-02    rms(broyden)= 0.25314E-02
  rms(prec ) = 0.45846E-02
  weight for this iteration     100.00

 eigenvalues of (default mixing * dielectric matrix)
  average eigenvalue GAMMA=   1.4840
  2.8158  2.4007  1.5991  1.1141  1.0063  0.8267  0.6253

 Free energy of the ion-electron system (eV)
  ---------------------------------------------------
  alpha Z        PSCENC =       209.13784418
  Ewald energy   TEWEN  =     -3747.35905186
  -Hartree energ DENC   =      -978.10424199
  -exchange      EXHF   =         0.00000000
  -V(xc)+E(xc)   XCENC  =       114.11780291
  PAW double counting   =      2789.63003884    -2707.24243261
  entropy T*S    EENTRO =        -0.00000000
  eigenvalues    EBANDS =      -377.98443549
  atomic energy  EATOM  =      4665.91418857
  ---------------------------------------------------
  free energy    TOTEN  =       -31.89028744 eV

  energy without entropy =      -31.89028744  energy(sigma->0) =      -31.89028744


--------------------------------------------------------------------------------------------------------




----------------------------------------- Iteration    1(  13)  ---------------------------------------


    POTLOK:  cpu time    0.08: real time    0.08
    SETDIJ:  cpu time    0.13: real time    0.13
    EDDIAG:  cpu time   13.58: real time   13.59
  RMM-DIIS:  cpu time   43.82: real time   43.92
    ORTHCH:  cpu time    2.19: real time    2.19
       DOS:  cpu time    0.01: real time    0.01
    CHARGE:  cpu time    2.16: real time    2.16
    MIXING:  cpu time    0.00: real time    0.00
    --------------------------------------------
      LOOP:  cpu time   61.97: real time   62.09

 eigenvalue-minimisations  : 63646
 total energy-change (2. order) :-0.5458456E-05  (-0.2006224E-04)
 number of electron      73.9999999 magnetization       0.0000002      0.0000004     -0.0000002
 augmentation part       -4.6583614 magnetization       0.0000005      0.0000005      0.0000000

 Broyden mixing:
  rms(total) = 0.13799E-02    rms(broyden)= 0.13796E-02
  rms(prec ) = 0.22893E-02
  weight for this iteration     100.00

 eigenvalues of (default mixing * dielectric matrix)
  average eigenvalue GAMMA=   1.5207
  2.7392  2.3222  2.3222  1.2467  1.1188  1.0109  0.7802  0.6251

 Free energy of the ion-electron system (eV)
  ---------------------------------------------------
  alpha Z        PSCENC =       209.13784418
  Ewald energy   TEWEN  =     -3747.35905186
  -Hartree energ DENC   =      -978.26110745
  -exchange      EXHF   =         0.00000000
  -V(xc)+E(xc)   XCENC  =       114.13052280
  PAW double counting   =      2793.19988285    -2710.77992224
  entropy T*S    EENTRO =        -0.00000000
  eigenvalues    EBANDS =      -377.87264974
  atomic energy  EATOM  =      4665.91418857
  ---------------------------------------------------
  free energy    TOTEN  =       -31.89029290 eV

  energy without entropy =      -31.89029290  energy(sigma->0) =      -31.89029290


--------------------------------------------------------------------------------------------------------




----------------------------------------- Iteration    1(  14)  ---------------------------------------


    POTLOK:  cpu time    0.08: real time    0.08
    SETDIJ:  cpu time    0.13: real time    0.13
    EDDIAG:  cpu time   13.59: real time   13.60
  RMM-DIIS:  cpu time   45.26: real time   45.35
    ORTHCH:  cpu time    2.19: real time    2.20
       DOS:  cpu time    0.01: real time    0.01
    CHARGE:  cpu time    2.15: real time    2.15
    MIXING:  cpu time    0.01: real time    0.01
[...]
   0.226E+02 -.421E-01 0.420E-01   -.219E+02 -.364E-14 -.124E-13   -.852E+00 0.380E-01 -.384E-01   -.127E-02 -.118E-03 0.530E-04
   -.414E-01 0.224E+02 0.121E+00   0.110E-13 -.219E+02 -.142E-13   0.374E-01 -.606E+00 -.106E+00   -.110E-03 -.989E-03 0.593E-04
   0.432E-01 0.126E+00 0.228E+02   0.684E-14 -.118E-15 -.219E+02   -.393E-01 -.110E+00 -.107E+01   0.482E-04 0.526E-04 -.131E-02
 -----------------------------------------------------------------------------------------------
   0.109E-04 0.270E-05 -.714E-05   -.177E-13 -.722E-14 0.000E+00   0.193E-05 -.396E-05 0.338E-05   -.142E-04 0.340E-06 0.387E-05
 
 
 POSITION                                       TOTAL-FORCE (eV/Angst)
 -----------------------------------------------------------------------------------
      0.00000      0.00000      0.00000        -0.016733     -0.006007      0.006239
      5.21442      5.21442     -5.21442         0.016734      0.006007     -0.006239
      2.60721      2.60721     -2.60721        -0.000001     -0.000000     -0.000000
      7.82162      7.82162     -7.82162         0.000000      0.000000     -0.000000
      5.39582      7.82162     -7.82162         0.086576      0.004215     -0.003701
      7.82162      5.39582     -7.82162         0.004094      0.027611     -0.014895
      7.82162      7.82162    -10.24742        -0.003925     -0.015857      0.090190
     10.24742      7.82162     -7.82162        -0.086577     -0.004215      0.003701
      7.82162     10.24742     -7.82162        -0.004094     -0.027611      0.014895
      7.82162      7.82162     -5.39582         0.003926      0.015857     -0.090189
 -----------------------------------------------------------------------------------
    total drift:                               -0.000001     -0.000001      0.000000


--------------------------------------------------------------------------------------------------------



  FREE ENERGIE OF THE ION-ELECTRON SYSTEM (eV)
  ---------------------------------------------------
  free  energy   TOTEN  =       -31.89030545 eV

  energy  without entropy=      -31.89030545  energy(sigma->0) =      -31.89030545
 


--------------------------------------------------------------------------------------------------------


    POTLOK:  cpu time    0.21: real time    0.22


--------------------------------------------------------------------------------------------------------


     LOOP+:  cpu time 1023.33: real time 1025.56
    4ORBIT:  cpu time    0.00: real time    0.00
 


 orbital moment (x)
 
 # of ion     p       d       tot
 ----------------------------------------
  1         0.000  -0.000  -0.000
  2        -0.000   0.000   0.000
  3         0.000  -0.000  -0.000
  4         0.000   0.000   0.000
  5        -0.000   0.000  -0.000
  6        -0.003   0.000  -0.003
  7         0.002   0.000   0.002
  8         0.000   0.000   0.000
  9         0.003   0.000   0.003
 10        -0.002   0.000  -0.002
 ----------------------------------------
           -0.000  -0.000  -0.000
 


 orbital moment (y)
 
 # of ion     p       d       tot
 ----------------------------------------
  1        -0.000  -0.000  -0.001
  2         0.000   0.000   0.001
  3        -0.000   0.000   0.000
  4         0.000  -0.000   0.000
  5        -0.007   0.000  -0.007
  6        -0.000   0.000  -0.000
  7        -0.001   0.000  -0.001
  8         0.007   0.000   0.007
  9         0.000   0.000   0.000
 10         0.001   0.000   0.001
 ----------------------------------------
            0.000   0.000   0.000
 


 orbital moment (z)
 
 # of ion     p       d       tot
 ----------------------------------------
  1        -0.001  -0.000  -0.002
  2         0.001   0.000   0.002
  3         0.000  -0.000  -0.000
  4         0.000  -0.000   0.000
  5        -0.005   0.000  -0.005
  6         0.001   0.000   0.001
  7         0.000   0.000   0.000
  8         0.005   0.000   0.005
  9        -0.001   0.000  -0.001
 10        -0.000   0.000  -0.000
 ----------------------------------------
           -0.000  -0.000  -0.000

 Spin-Orbit-Coupling matrix elements

 Ion:    1  E_soc:     -0.2851842
 l=   1
     0.0000000    -0.0475203    -0.0475816
    -0.0475203     0.0000000    -0.0474486
    -0.0475816    -0.0474486     0.0000000
 l=   2
     0.0000000    -0.0000031     0.0000000    -0.0000028    -0.0000125
    -0.0000031     0.0000000    -0.0000084    -0.0000027    -0.0000025
     0.0000000    -0.0000084     0.0000000    -0.0000070     0.0000000
    -0.0000028    -0.0000027    -0.0000070     0.0000000    -0.0000024
    -0.0000125    -0.0000025     0.0000000    -0.0000024     0.0000000
 l=   3
     0.0000000     0.0000000     0.0000000     0.0000000     0.0000000     0.0000000     0.0000000
     0.0000000     0.0000000     0.0000000     0.0000000     0.0000000     0.0000000     0.0000000
     0.0000000     0.0000000     0.0000000     0.0000000     0.0000000     0.0000000     0.0000000
     0.0000000     0.0000000     0.0000000     0.0000000     0.0000000     0.0000000     0.0000000
     0.0000000     0.0000000     0.0000000     0.0000000     0.0000000     0.0000000     0.0000000
     0.0000000     0.0000000     0.0000000     0.0000000     0.0000000     0.0000000     0.0000000
     0.0000000     0.0000000     0.0000000     0.0000000     0.0000000     0.0000000     0.0000000

 Ion:    2  E_soc:     -0.2851842
 l=   1
     0.0000000    -0.0475203    -0.0475816
    -0.0475203     0.0000000    -0.0474486
    -0.0475816    -0.0474486     0.0000000
 l=   2
     0.0000000    -0.0000031     0.0000000    -0.0000028    -0.0000125
    -0.0000031     0.0000000    -0.0000084    -0.0000027    -0.0000025
     0.0000000    -0.0000084     0.0000000    -0.0000070     0.0000000
    -0.0000028    -0.0000027    -0.0000070     0.0000000    -0.0000024
    -0.0000125    -0.0000025     0.0000000    -0.0000024     0.0000000
 l=   3
     0.0000000     0.0000000     0.0000000     0.0000000     0.0000000     0.0000000     0.0000000
     0.0000000     0.0000000     0.0000000     0.0000000     0.0000000     0.0000000     0.0000000
     0.0000000     0.0000000     0.0000000     0.0000000     0.0000000     0.0000000     0.0000000
     0.0000000     0.0000000     0.0000000     0.0000000     0.0000000     0.0000000     0.0000000
     0.0000000     0.0000000     0.0000000     0.0000000     0.0000000     0.0000000     0.0000000
     0.0000000     0.0000000     0.0000000     0.0000000     0.0000000     0.0000000     0.0000000
     0.0000000     0.0000000     0.0000000     0.0000000     0.0000000     0.0000000     0.0000000

 Ion:    3  E_soc:     -0.0439227
 l=   1
     0.0000000    -0.0007266    -0.0007370
    -0.0007266     0.0000000    -0.0006870
    -0.0007370    -0.0006870     0.0000000
 l=   2
     0.0000000    -0.0012755     0.0000000    -0.0012799    -0.0055062
    -0.0012755     0.0000000    -0.0038718    -0.0012893    -0.0014015
     0.0000000    -0.0038718     0.0000000    -0.0038303     0.0000000
    -0.0012799    -0.0012893    -0.0038303     0.0000000    -0.0013562
    -0.0055062    -0.0014015     0.0000000    -0.0013562     0.0000000
 l=   3
     0.0000000     0.0000000     0.0000000     0.0000000     0.0000000     0.0000000     0.0000000
     0.0000000     0.0000000     0.0000000     0.0000000     0.0000000     0.0000000     0.0000000
     0.0000000     0.0000000     0.0000000     0.0000000     0.0000000     0.0000000     0.0000000
     0.0000000     0.0000000     0.0000000     0.0000000     0.0000000     0.0000000     0.0000000
     0.0000000     0.0000000     0.0000000     0.0000000     0.0000000     0.0000000     0.0000000
     0.0000000     0.0000000     0.0000000     0.0000000     0.0000000     0.0000000     0.0000000
     0.0000000     0.0000000     0.0000000     0.0000000     0.0000000     0.0000000     0.0000000

 Ion:    4  E_soc:     -0.0034669
 l=   1
     0.0000000    -0.0005563    -0.0005691
    -0.0005563     0.0000000    -0.0005318
    -0.0005691    -0.0005318     0.0000000
 l=   2
     0.0000000    -0.0000004     0.0000000    -0.0000003    -0.0000244
    -0.0000004     0.0000000    -0.0000200    -0.0000005    -0.0000053
     0.0000000    -0.0000200     0.0000000    -0.0000196     0.0000000
    -0.0000003    -0.0000005    -0.0000196     0.0000000    -0.0000057
    -0.0000244    -0.0000053     0.0000000    -0.0000057     0.0000000
 l=   3
     0.0000000     0.0000000     0.0000000     0.0000000     0.0000000     0.0000000     0.0000000
     0.0000000     0.0000000     0.0000000     0.0000000     0.0000000     0.0000000     0.0000000
     0.0000000     0.0000000     0.0000000     0.0000000     0.0000000     0.0000000     0.0000000
     0.0000000     0.0000000     0.0000000     0.0000000     0.0000000     0.0000000     0.0000000
     0.0000000     0.0000000     0.0000000     0.0000000     0.0000000     0.0000000     0.0000000
     0.0000000     0.0000000     0.0000000     0.0000000     0.0000000     0.0000000     0.0000000
     0.0000000     0.0000000     0.0000000     0.0000000     0.0000000     0.0000000     0.0000000

 Ion:    5  E_soc:     -0.0032338
 l=   1
     0.0000000    -0.0004934    -0.0005567
    -0.0004934     0.0000000    -0.0005669
    -0.0005567    -0.0005669     0.0000000
 l=   2
     0.0000000     0.0000000     0.0000000     0.0000000     0.0000000
     0.0000000     0.0000000     0.0000000     0.0000000     0.0000000
     0.0000000     0.0000000     0.0000000     0.0000000     0.0000000
     0.0000000     0.0000000     0.0000000     0.0000000     0.0000000
     0.0000000     0.0000000     0.0000000     0.0000000     0.0000000
 l=   3
     0.0000000     0.0000000     0.0000000     0.0000000     0.0000000     0.0000000     0.0000000
     0.0000000     0.0000000     0.0000000     0.0000000     0.0000000     0.0000000     0.0000000
     0.0000000     0.0000000     0.0000000     0.0000000     0.0000000     0.0000000     0.0000000
     0.0000000     0.0000000     0.0000000     0.0000000     0.0000000     0.0000000     0.0000000
     0.0000000     0.0000000     0.0000000     0.0000000     0.0000000     0.0000000     0.0000000
     0.0000000     0.0000000     0.0000000     0.0000000     0.0000000     0.0000000     0.0000000
     0.0000000     0.0000000     0.0000000     0.0000000     0.0000000     0.0000000     0.0000000

 Ion:    6  E_soc:     -0.0032811
 l=   1
     0.0000000    -0.0005774    -0.0005686
    -0.0005774     0.0000000    -0.0004946
    -0.0005686    -0.0004946     0.0000000
 l=   2
     0.0000000     0.0000000     0.0000000     0.0000000     0.0000000
     0.0000000     0.0000000     0.0000000     0.0000000     0.0000000
     0.0000000     0.0000000     0.0000000     0.0000000     0.0000000
     0.0000000     0.0000000     0.0000000     0.0000000     0.0000000
     0.0000000     0.0000000     0.0000000     0.0000000     0.0000000
 l=   3
     0.0000000     0.0000000     0.0000000     0.0000000     0.0000000     0.0000000     0.0000000
     0.0000000     0.0000000     0.0000000     0.0000000     0.0000000     0.0000000     0.0000000
     0.0000000     0.0000000     0.0000000     0.0000000     0.0000000     0.0000000     0.0000000
     0.0000000     0.0000000     0.0000000     0.0000000     0.0000000     0.0000000     0.0000000
     0.0000000     0.0000000     0.0000000     0.0000000     0.0000000     0.0000000     0.0000000
     0.0000000     0.0000000     0.0000000     0.0000000     0.0000000     0.0000000     0.0000000
     0.0000000     0.0000000     0.0000000     0.0000000     0.0000000     0.0000000     0.0000000

 Ion:    7  E_soc:     -0.0032203
 l=   1
     0.0000000    -0.0005604    -0.0004880
    -0.0005604     0.0000000    -0.0005618
    -0.0004880    -0.0005618     0.0000000
 l=   2
     0.0000000     0.0000000     0.0000000     0.0000000     0.0000000
     0.0000000     0.0000000     0.0000000     0.0000000     0.0000000
     0.0000000     0.0000000     0.0000000     0.0000000     0.0000000
     0.0000000     0.0000000     0.0000000     0.0000000     0.0000000
     0.0000000     0.0000000     0.0000000     0.0000000     0.0000000
 l=   3
     0.0000000     0.0000000     0.0000000     0.0000000     0.0000000     0.0000000     0.0000000
     0.0000000     0.0000000     0.0000000     0.0000000     0.0000000     0.0000000     0.0000000
     0.0000000     0.0000000     0.0000000     0.0000000     0.0000000     0.0000000     0.0000000
     0.0000000     0.0000000     0.0000000     0.0000000     0.0000000     0.0000000     0.0000000
     0.0000000     0.0000000     0.0000000     0.0000000     0.0000000     0.0000000     0.0000000
     0.0000000     0.0000000     0.0000000     0.0000000     0.0000000     0.0000000     0.0000000
     0.0000000     0.0000000     0.0000000     0.0000000     0.0000000     0.0000000     0.0000000

 Ion:    8  E_soc:     -0.0032338
 l=   1
     0.0000000    -0.0004934    -0.0005567
    -0.0004934     0.0000000    -0.0005668
    -0.0005567    -0.0005668     0.0000000
 l=   2
     0.0000000     0.0000000     0.0000000     0.0000000     0.0000000
     0.0000000     0.0000000     0.0000000     0.0000000     0.0000000
     0.0000000     0.0000000     0.0000000     0.0000000     0.0000000
     0.0000000     0.0000000     0.0000000     0.0000000     0.0000000
     0.0000000     0.0000000     0.0000000     0.0000000     0.0000000
 l=   3
     0.0000000     0.0000000     0.0000000     0.0000000     0.0000000     0.0000000     0.0000000
     0.0000000     0.0000000     0.0000000     0.0000000     0.0000000     0.0000000     0.0000000
     0.0000000     0.0000000     0.0000000     0.0000000     0.0000000     0.0000000     0.0000000
     0.0000000     0.0000000     0.0000000     0.0000000     0.0000000     0.0000000     0.0000000
     0.0000000     0.0000000     0.0000000     0.0000000     0.0000000     0.0000000     0.0000000
     0.0000000     0.0000000     0.0000000     0.0000000     0.0000000     0.0000000     0.0000000
     0.0000000     0.0000000     0.0000000     0.0000000     0.0000000     0.0000000     0.0000000

 Ion:    9  E_soc:     -0.0032811
 l=   1
     0.0000000    -0.0005774    -0.0005686
    -0.0005774     0.0000000    -0.0004946
    -0.0005686    -0.0004946     0.0000000
 l=   2
     0.0000000     0.0000000     0.0000000     0.0000000     0.0000000
     0.0000000     0.0000000     0.0000000     0.0000000     0.0000000
     0.0000000     0.0000000     0.0000000     0.0000000     0.0000000
     0.0000000     0.0000000     0.0000000     0.0000000     0.0000000
     0.0000000     0.0000000     0.0000000     0.0000000     0.0000000
 l=   3
     0.0000000     0.0000000     0.0000000     0.0000000     0.0000000     0.0000000     0.0000000
     0.0000000     0.0000000     0.0000000     0.0000000     0.0000000     0.0000000     0.0000000
     0.0000000     0.0000000     0.0000000     0.0000000     0.0000000     0.0000000     0.0000000
     0.0000000     0.0000000     0.0000000     0.0000000     0.0000000     0.0000000     0.0000000
     0.0000000     0.0000000     0.0000000     0.0000000     0.0000000     0.0000000     0.0000000
     0.0000000     0.0000000     0.0000000     0.0000000     0.0000000     0.0000000     0.0000000
     0.0000000     0.0000000     0.0000000     0.0000000     0.0000000     0.0000000     0.0000000

 Ion:   10  E_soc:     -0.0032203
 l=   1
     0.0000000    -0.0005604    -0.0004880
    -0.0005604     0.0000000    -0.0005618
    -0.0004880    -0.0005618     0.0000000
 l=   2
     0.0000000     0.0000000     0.0000000     0.0000000     0.0000000
     0.0000000     0.0000000     0.0000000     0.0000000     0.0000000
     0.0000000     0.0000000     0.0000000     0.0000000     0.0000000
     0.0000000     0.0000000     0.0000000     0.0000000     0.0000000
     0.0000000     0.0000000     0.0000000     0.0000000     0.0000000
 l=   3
     0.0000000     0.0000000     0.0000000     0.0000000     0.0000000     0.0000000     0.0000000
     0.0000000     0.0000000     0.0000000     0.0000000     0.0000000     0.0000000     0.0000000
     0.0000000     0.0000000     0.0000000     0.0000000     0.0000000     0.0000000     0.0000000
     0.0000000     0.0000000     0.0000000     0.0000000     0.0000000     0.0000000     0.0000000
     0.0000000     0.0000000     0.0000000     0.0000000     0.0000000     0.0000000     0.0000000
     0.0000000     0.0000000     0.0000000     0.0000000     0.0000000     0.0000000     0.0000000
     0.0000000     0.0000000     0.0000000     0.0000000     0.0000000     0.0000000     0.0000000
 


 total charge     
 
# of ion     s       p       d       tot
----------------------------------------
  1        1.848   4.719   0.020   6.587
  2        1.848   4.719   0.020   6.587
  3        0.135   0.092   9.161   9.388
  4        0.889   0.886   0.241   2.015
  5        1.596   3.530   0.000   5.126
  6        1.597   3.526   0.000   5.123
  7        1.595   3.538   0.000   5.133
  8        1.596   3.530   0.000   5.126
  9        1.597   3.526   0.000   5.123
 10        1.595   3.538   0.000   5.133
------------------------------------------------
tot       14.294  31.607   9.442  55.343
 


 magnetization (x)
 
# of ion     s       p       d       tot
----------------------------------------
  1       -0.000  -0.000   0.000  -0.000
  2       -0.000   0.000  -0.000   0.000
  3       -0.000  -0.000  -0.000  -0.000
  4       -0.000  -0.000  -0.000  -0.000
  5       -0.000   0.000   0.000   0.000
  6        0.000   0.000   0.000   0.000
  7        0.000   0.000   0.000   0.000
  8        0.000  -0.000   0.000  -0.000
  9       -0.000  -0.000   0.000  -0.000
 10       -0.000  -0.000   0.000  -0.000
------------------------------------------------
tot       -0.000  -0.000  -0.000  -0.000
 


 magnetization (y)
 
# of ion     s       p       d       tot
----------------------------------------
  1       -0.000  -0.000  -0.000  -0.000
  2        0.000   0.000   0.000   0.000
  3       -0.000  -0.000   0.000   0.000
  4        0.000   0.000   0.000   0.000
  5       -0.000  -0.000   0.000  -0.000
  6       -0.000   0.000   0.000   0.000
  7       -0.000  -0.000   0.000  -0.000
  8        0.000   0.000   0.000   0.000
  9       -0.000  -0.000   0.000  -0.000
 10        0.000   0.000   0.000   0.000
------------------------------------------------
tot       -0.000   0.000   0.000   0.000
 


 magnetization (z)
 
# of ion     s       p       d       tot
----------------------------------------
  1       -0.000  -0.000  -0.000  -0.000
  2        0.000   0.000   0.000   0.000
  3        0.000   0.000   0.000   0.000
  4       -0.000  -0.000  -0.000  -0.000
  5       -0.000  -0.000   0.000  -0.000
  6        0.000   0.000   0.000   0.000
  7        0.000   0.000   0.000   0.000
  8        0.000   0.000   0.000   0.000
  9       -0.000  -0.000   0.000  -0.000
 10       -0.000  -0.000   0.000  -0.000
------------------------------------------------
tot        0.000  -0.000   0.000  -0.000
 

 total amount of memory used by VASP on root node   318417. kBytes
========================================================================

   base      :      30000. kBytes
   nonl-proj :      78250. kBytes
   fftplans  :       6238. kBytes
   grid      :       6967. kBytes
   one-center:        124. kBytes
   wavefun   :     196838. kBytes
 
  
  
 General timing and accounting informations for this job:
 ========================================================
  
                  Total CPU time used (sec):     1059.873
                            User time (sec):     1002.299
                          System time (sec):       57.574
                         Elapsed time (sec):     1063.835
  
                   Maximum memory used (kb):      438876.
                   Average memory used (kb):           0.
  
                          Minor page faults:     26599842
                          Major page faults:            6
                 Voluntary context switches:         1497
