   1   1   1   0
  0.2999813E+01  0.1442220E-09  0.1442220E-09  0.1442220E-09  0.5000000E-15
  1.000000000000000E-004
  CAR 
 jump2                                   
     81.51195670    -18.14702275  301      2.47573183      1.00000000
    -18.147  0.0000E+00  0.0000E+00
    -17.815  0.0000E+00  0.0000E+00
    -17.483  0.0000E+00  0.0000E+00
    -17.150  0.0000E+00  0.0000E+00
    -16.818  0.0000E+00  0.0000E+00
    -16.486  0.0000E+00  0.0000E+00
    -16.154  0.0000E+00  0.0000E+00
    -15.822  0.0000E+00  0.0000E+00
    -15.489  0.0000E+00  0.0000E+00
    -15.157  0.0000E+00  0.0000E+00
    -14.825  0.0000E+00  0.0000E+00
    -14.493  0.0000E+00  0.0000E+00
    -14.161  0.2193E-18  0.7284E-19
    -13.828  0.4086E-07  0.1357E-07
    -13.496  0.5335E-04  0.1774E-04
    -13.164  0.4419E-03  0.1645E-03
    -12.832  0.3874E-03  0.2932E-03
    -12.500  0.9281E-03  0.6015E-03
    -12.167  0.5796E-03  0.7941E-03
    -11.835  0.9032E-03  0.1094E-02
    -11.503  0.1228E-02  0.1502E-02
    -11.171  0.7787E-03  0.1761E-02
    -10.839  0.1697E-02  0.2324E-02
    -10.507  0.4419E-03  0.2471E-02
    -10.174  0.1678E-02  0.3029E-02
     -9.842  0.1496E-02  0.3526E-02
     -9.510  0.1692E-02  0.4088E-02
     -9.178  0.1174E-02  0.4478E-02
     -8.846  0.7845E-03  0.4738E-02
     -8.513  0.2530E-02  0.5579E-02
     -8.181  0.1324E-02  0.6018E-02
     -7.849  0.2472E-02  0.6839E-02
     -7.517  0.1056E-02  0.7190E-02
     -7.185  0.1345E-02  0.7637E-02
     -6.852  0.2435E-02  0.8446E-02
     -6.520  0.1970E-02  0.9100E-02
     -6.188  0.2256E-02  0.9850E-02
     -5.856  0.9319E-03  0.1016E-01
     -5.524  0.3309E-02  0.1126E-01
     -5.191  0.1800E-02  0.1186E-01
     -4.859  0.2487E-02  0.1268E-01
     -4.527  0.1527E-02  0.1319E-01
     -4.195  0.1383E-02  0.1365E-01
     -3.863  0.3487E-02  0.1481E-01
     -3.530  0.2189E-02  0.1553E-01
     -3.198  0.3707E-02  0.1677E-01
     -2.866  0.1333E-02  0.1721E-01
     -2.534  0.2634E-02  0.1808E-01
     -2.202  0.1973E-02  0.1874E-01
     -1.869  0.2414E-02  0.1954E-01
     -1.537  0.3753E-02  0.2079E-01
     -1.205  0.1664E-02  0.2134E-01
     -0.873  0.4991E-02  0.2300E-01
     -0.541  0.1852E-02  0.2361E-01
     -0.208  0.2624E-02  0.2449E-01
      0.124  0.2909E-02  0.2545E-01
      0.456  0.3415E-02  0.2659E-01
      0.788  0.4175E-02  0.2797E-01
      1.120  0.3575E-02  0.2916E-01
      1.453  0.4120E-02  0.3053E-01
      1.785  0.2241E-02  0.3127E-01
      2.117  0.4678E-02  0.3283E-01
      2.449  0.1353E-02  0.3328E-01
      2.781  0.3494E-02  0.3444E-01
      3.114  0.4316E-02  0.3587E-01
      3.446  0.4453E-02  0.3735E-01
      3.778  0.2805E-02  0.3828E-01
      4.110  0.1946E-02  0.3893E-01
      4.442  0.1596E-02  0.3946E-01
      4.775  0.2770E-02  0.4038E-01
      5.107  0.6040E-02  0.4239E-01
      5.439  0.1700E-02  0.4295E-01
      5.771  0.3973E-02  0.4427E-01
      6.103  0.1576E-02  0.4479E-01
      6.436  0.1741E-02  0.4537E-01
      6.768  0.2772E-02  0.4629E-01
      7.100  0.2885E-02  0.4725E-01
      7.432  0.3075E-02  0.4827E-01
      7.764  0.3912E-02  0.4957E-01
      8.097  0.2302E-02  0.5034E-01
      8.429  0.1184E-02  0.5073E-01
      8.761  0.1410E-02  0.5120E-01
      9.093  0.2511E-02  0.5203E-01
      9.425  0.2934E-02  0.5301E-01
      9.757  0.4192E-02  0.5440E-01
     10.090  0.2464E-02  0.5522E-01
     10.422  0.1567E-02  0.5574E-01
     10.754  0.1704E-02  0.5631E-01
     11.086  0.3340E-02  0.5742E-01
     11.418  0.3680E-02  0.5864E-01
     11.751  0.4841E-02  0.6025E-01
     12.083  0.2337E-02  0.6102E-01
     12.415  0.9016E-03  0.6132E-01
     12.747  0.3727E-02  0.6256E-01
     13.079  0.1629E-02  0.6310E-01
     13.412  0.4919E-02  0.6474E-01
     13.744  0.4629E-02  0.6627E-01
     14.076  0.3609E-02  0.6747E-01
     14.408  0.1070E-02  0.6783E-01
     14.740  0.1787E-02  0.6842E-01
     15.073  0.2910E-02  0.6939E-01
     15.405  0.5493E-02  0.7121E-01
     15.737  0.2513E-02  0.7205E-01
     16.069  0.2128E-02  0.7275E-01
     16.401  0.1821E-02  0.7336E-01
     16.734  0.2531E-02  0.7420E-01
     17.066  0.2643E-02  0.7508E-01
     17.398  0.4124E-02  0.7645E-01
     17.730  0.4379E-02  0.7790E-01
     18.062  0.3708E-02  0.7913E-01
     18.395  0.2627E-02  0.8001E-01
     18.727  0.2965E-02  0.8099E-01
     19.059  0.3250E-02  0.8207E-01
     19.391  0.2901E-02  0.8304E-01
     19.723  0.1962E-02  0.8369E-01
     20.056  0.5348E-02  0.8546E-01
     20.388  0.3360E-02  0.8658E-01
     20.720  0.4658E-02  0.8813E-01
     21.052  0.1694E-02  0.8869E-01
     21.384  0.3701E-03  0.8881E-01
     21.717  0.5983E-02  0.9080E-01
     22.049  0.2620E-02  0.9167E-01
     22.381  0.5429E-02  0.9347E-01
     22.713  0.3300E-02  0.9457E-01
     23.045  0.6154E-02  0.9662E-01
     23.378  0.4499E-02  0.9811E-01
     23.710  0.3301E-02  0.9921E-01
     24.042  0.3489E-02  0.1004E+00
     24.374  0.3198E-02  0.1014E+00
     24.706  0.7596E-02  0.1040E+00
     25.039  0.1962E-02  0.1046E+00
     25.371  0.5294E-02  0.1064E+00
     25.703  0.1307E-02  0.1068E+00
     26.035  0.2957E-02  0.1078E+00
     26.367  0.4606E-02  0.1093E+00
     26.700  0.4405E-02  0.1108E+00
     27.032  0.5976E-02  0.1128E+00
     27.364  0.3314E-02  0.1139E+00
     27.696  0.5426E-02  0.1157E+00
     28.028  0.2208E-02  0.1164E+00
     28.361  0.3914E-02  0.1177E+00
     28.693  0.4269E-02  0.1191E+00
     29.025  0.5908E-02  0.1211E+00
     29.357  0.3198E-02  0.1221E+00
     29.689  0.5079E-02  0.1238E+00
     30.021  0.5223E-02  0.1256E+00
     30.354  0.4708E-02  0.1271E+00
     30.686  0.3630E-02  0.1283E+00
     31.018  0.2764E-02  0.1292E+00
     31.350  0.2909E-02  0.1302E+00
     31.682  0.3591E-02  0.1314E+00
     32.015  0.4951E-02  0.1331E+00
     32.347  0.5763E-02  0.1350E+00
     32.679  0.3211E-02  0.1360E+00
     33.011  0.5305E-02  0.1378E+00
     33.343  0.3912E-02  0.1391E+00
     33.676  0.4929E-02  0.1407E+00
     34.008  0.3168E-02  0.1418E+00
     34.340  0.3624E-02  0.1430E+00
     34.672  0.5306E-02  0.1448E+00
     35.004  0.7345E-02  0.1472E+00
     35.337  0.5457E-02  0.1490E+00
     35.669  0.1923E-02  0.1496E+00
     36.001  0.3180E-02  0.1507E+00
     36.333  0.2848E-02  0.1516E+00
     36.665  0.6900E-02  0.1539E+00
     36.998  0.4263E-02  0.1554E+00
     37.330  0.3444E-02  0.1565E+00
     37.662  0.4869E-02  0.1581E+00
     37.994  0.3391E-02  0.1592E+00
     38.326  0.6141E-02  0.1613E+00
     38.659  0.1073E-01  0.1648E+00
     38.991  0.2822E-02  0.1658E+00
     39.323  0.5263E-02  0.1675E+00
     39.655  0.6405E-02  0.1697E+00
     39.987  0.4696E-02  0.1712E+00
     40.320  0.6447E-02  0.1734E+00
     40.652  0.1762E-02  0.1739E+00
     40.984  0.4252E-02  0.1754E+00
     41.316  0.2542E-02  0.1762E+00
     41.648  0.5322E-02  0.1780E+00
     41.981  0.3981E-02  0.1793E+00
     42.313  0.4067E-02  0.1806E+00
     42.645  0.4950E-02  0.1823E+00
     42.977  0.6101E-02  0.1843E+00
     43.309  0.4287E-02  0.1857E+00
     43.642  0.5756E-02  0.1877E+00
     43.974  0.5812E-02  0.1896E+00
     44.306  0.5916E-02  0.1915E+00
     44.638  0.8439E-02  0.1944E+00
     44.970  0.2669E-02  0.1952E+00
     45.303  0.3122E-02  0.1963E+00
     45.635  0.2536E-02  0.1971E+00
     45.967  0.4262E-02  0.1985E+00
     46.299  0.5484E-02  0.2004E+00
     46.631  0.3930E-02  0.2017E+00
     46.964  0.1538E-02  0.2022E+00
     47.296  0.5883E-02  0.2041E+00
     47.628  0.5347E-02  0.2059E+00
     47.960  0.5545E-02  0.2077E+00
     48.292  0.7170E-02  0.2101E+00
     48.624  0.3834E-02  0.2114E+00
     48.957  0.3815E-02  0.2127E+00
     49.289  0.3751E-02  0.2139E+00
     49.621  0.1671E-02  0.2145E+00
     49.953  0.3473E-02  0.2156E+00
     50.285  0.6234E-02  0.2177E+00
     50.618  0.2781E-02  0.2186E+00
     50.950  0.4563E-02  0.2201E+00
     51.282  0.3293E-02  0.2212E+00
     51.614  0.3193E-02  0.2223E+00
     51.946  0.2910E-02  0.2233E+00
     52.279  0.3378E-02  0.2244E+00
     52.611  0.3251E-02  0.2255E+00
     52.943  0.5459E-02  0.2273E+00
     53.275  0.6872E-02  0.2296E+00
     53.607  0.3625E-02  0.2308E+00
     53.940  0.3572E-02  0.2319E+00
     54.272  0.2622E-02  0.2328E+00
     54.604  0.2999E-02  0.2338E+00
     54.936  0.7681E-03  0.2341E+00
     55.268  0.1774E-02  0.2347E+00
     55.601  0.3421E-02  0.2358E+00
     55.933  0.3123E-02  0.2368E+00
     56.265  0.4012E-02  0.2382E+00
     56.597  0.3722E-02  0.2394E+00
     56.929  0.3826E-02  0.2407E+00
     57.262  0.5483E-02  0.2425E+00
     57.594  0.3541E-02  0.2437E+00
     57.926  0.2837E-02  0.2446E+00
     58.258  0.2266E-02  0.2454E+00
     58.590  0.1610E-02  0.2459E+00
     58.923  0.6698E-02  0.2481E+00
     59.255  0.2700E-02  0.2490E+00
     59.587  0.1267E-02  0.2494E+00
     59.919  0.1271E-02  0.2499E+00
     60.251  0.1909E-03  0.2499E+00
     60.584  0.2873E-02  0.2509E+00
     60.916  0.6369E-03  0.2511E+00
     61.248  0.2382E-02  0.2519E+00
     61.580  0.3415E-02  0.2530E+00
     61.912  0.3309E-02  0.2541E+00
     62.245  0.3287E-02  0.2552E+00
     62.577  0.4356E-02  0.2567E+00
     62.909  0.2975E-02  0.2576E+00
     63.241  0.1493E-02  0.2581E+00
     63.573  0.9948E-03  0.2585E+00
     63.906  0.1458E-02  0.2590E+00
     64.238  0.2733E-02  0.2599E+00
     64.570  0.2157E-02  0.2606E+00
     64.902  0.1059E-02  0.2609E+00
     65.234  0.2013E-02  0.2616E+00
     65.567  0.5113E-03  0.2618E+00
     65.899  0.6993E-03  0.2620E+00
     66.231  0.3527E-03  0.2621E+00
     66.563  0.2237E-02  0.2629E+00
     66.895  0.1071E-02  0.2632E+00
     67.228  0.1248E-02  0.2636E+00
     67.560  0.6770E-03  0.2639E+00
     67.892  0.7273E-03  0.2641E+00
     68.224  0.7864E-03  0.2644E+00
     68.556  0.1851E-02  0.2650E+00
     68.888  0.2114E-03  0.2650E+00
     69.221  0.8331E-03  0.2653E+00
     69.553  0.6816E-03  0.2656E+00
     69.885  0.2698E-04  0.2656E+00
     70.217  0.6727E-03  0.2658E+00
     70.549  0.2840E-04  0.2658E+00
     70.882  0.2886E-03  0.2659E+00
     71.214  0.4136E-03  0.2660E+00
     71.546  0.1347E-03  0.2661E+00
     71.878  0.7069E-04  0.2661E+00
     72.210  0.6713E-03  0.2663E+00
     72.543  0.1026E-05  0.2663E+00
     72.875  0.0000E+00  0.2663E+00
     73.207  0.0000E+00  0.2663E+00
     73.539  0.0000E+00  0.2663E+00
     73.871  0.3104E-13  0.2663E+00
     74.204  0.2175E-04  0.2663E+00
     74.536  0.8524E-03  0.2666E+00
     74.868  0.3643E-05  0.2666E+00
     75.200  0.0000E+00  0.2666E+00
     75.532  0.0000E+00  0.2666E+00
     75.865  0.0000E+00  0.2666E+00
     76.197  0.0000E+00  0.2666E+00
     76.529  0.1308E-13  0.2666E+00
     76.861  0.7687E-05  0.2666E+00
     77.193  0.1676E-03  0.2667E+00
     77.526  0.2452E-06  0.2667E+00
     77.858  0.0000E+00  0.2667E+00
     78.190  0.0000E+00  0.2667E+00
     78.522  0.0000E+00  0.2667E+00
     78.854  0.0000E+00  0.2667E+00
     79.187  0.0000E+00  0.2667E+00
     79.519  0.0000E+00  0.2667E+00
     79.851  0.0000E+00  0.2667E+00
     80.183  0.0000E+00  0.2667E+00
     80.515  0.0000E+00  0.2667E+00
     80.848  0.0000E+00  0.2667E+00
     81.180  0.0000E+00  0.2667E+00
     81.512  0.0000E+00  0.2667E+00
     81.51195670    -18.14702275  301      2.47573183      1.00000000
    -18.147  0.0000E+00  0.0000E+00  0.0000E+00  0.0000E+00  0.0000E+00  0.0000E+00  0.0000E+00  0.0000E+00  0.0000E+00
    -17.815  0.0000E+00  0.0000E+00  0.0000E+00  0.0000E+00  0.0000E+00  0.0000E+00  0.0000E+00  0.0000E+00  0.0000E+00
    -17.483  0.0000E+00  0.0000E+00  0.0000E+00  0.0000E+00  0.0000E+00  0.0000E+00  0.0000E+00  0.0000E+00  0.0000E+00
    -17.150  0.0000E+00  0.0000E+00  0.0000E+00  0.0000E+00  0.0000E+00  0.0000E+00  0.0000E+00  0.0000E+00  0.0000E+00
    -16.818  0.0000E+00  0.0000E+00  0.0000E+00  0.0000E+00  0.0000E+00  0.0000E+00  0.0000E+00  0.0000E+00  0.0000E+00
    -16.486  0.0000E+00  0.0000E+00  0.0000E+00  0.0000E+00  0.0000E+00  0.0000E+00  0.0000E+00  0.0000E+00  0.0000E+00
    -16.154  0.0000E+00  0.0000E+00  0.0000E+00  0.0000E+00  0.0000E+00  0.0000E+00  0.0000E+00  0.0000E+00  0.0000E+00
    -15.822  0.0000E+00  0.0000E+00  0.0000E+00  0.0000E+00  0.0000E+00  0.0000E+00  0.0000E+00  0.0000E+00  0.0000E+00
    -15.489  0.0000E+00  0.0000E+00  0.0000E+00  0.0000E+00  0.0000E+00  0.0000E+00  0.0000E+00  0.0000E+00  0.0000E+00
    -15.157  0.0000E+00  0.0000E+00  0.0000E+00  0.0000E+00  0.0000E+00  0.0000E+00  0.0000E+00  0.0000E+00  0.0000E+00
    -14.825  0.0000E+00  0.0000E+00  0.0000E+00  0.0000E+00  0.0000E+00  0.0000E+00  0.0000E+00  0.0000E+00  0.0000E+00
    -14.493  0.0000E+00  0.0000E+00  0.0000E+00  0.0000E+00  0.0000E+00  0.0000E+00  0.0000E+00  0.0000E+00  0.0000E+00
    -14.161  0.2714E-17  0.6619E-40  0.3538E-40  0.2889E-40  0.0000E+00  0.0000E+00  0.0000E+00  0.0000E+00  0.0000E+00
    -13.828  0.5057E-06  0.3232E-24  0.1679E-23  0.1575E-13  0.0000E+00  0.0000E+00  0.0000E+00  0.0000E+00  0.0000E+00
    -13.496  0.6600E-03  0.4797E-09  0.1625E-15  0.5348E-06  0.0000E+00  0.0000E+00  0.0000E+00  0.0000E+00  0.0000E+00
    -13.164  0.5462E-02  0.6128E-05  0.1433E-06  0.9288E-05  0.0000E+00  0.0000E+00  0.0000E+00  0.0000E+00  0.0000E+00
    -12.832  0.4784E-02  0.6266E-05  0.4796E-05  0.1402E-04  0.0000E+00  0.0000E+00  0.0000E+00  0.0000E+00  0.0000E+00
    -12.500  0.1144E-01  0.1661E-04  0.3163E-05  0.7154E-04  0.0000E+00  0.0000E+00  0.0000E+00  0.0000E+00  0.0000E+00
    -12.167  0.7140E-02  0.1259E-04  0.1075E-04  0.4166E-04  0.0000E+00  0.0000E+00  0.0000E+00  0.0000E+00  0.0000E+00
    -11.835  0.1111E-01  0.5854E-04  0.9770E-05  0.7516E-04  0.0000E+00  0.0000E+00  0.0000E+00  0.0000E+00  0.0000E+00
    -11.503  0.1511E-01  0.3705E-04  0.9976E-05  0.1621E-03  0.0000E+00  0.0000E+00  0.0000E+00  0.0000E+00  0.0000E+00
    -11.171  0.9568E-02  0.3000E-04  0.2407E-04  0.9982E-04  0.0000E+00  0.0000E+00  0.0000E+00  0.0000E+00  0.0000E+00
    -10.839  0.2083E-01  0.1274E-03  0.2213E-04  0.2486E-03  0.0000E+00  0.0000E+00  0.0000E+00  0.0000E+00  0.0000E+00
    -10.507  0.5427E-02  0.2621E-04  0.7060E-05  0.7620E-04  0.0000E+00  0.0000E+00  0.0000E+00  0.0000E+00  0.0000E+00
    -10.174  0.2059E-01  0.7062E-04  0.4830E-04  0.3426E-03  0.0000E+00  0.0000E+00  0.0000E+00  0.0000E+00  0.0000E+00
     -9.842  0.1835E-01  0.1457E-03  0.2250E-04  0.2804E-03  0.0000E+00  0.0000E+00  0.0000E+00  0.0000E+00  0.0000E+00
     -9.510  0.2076E-01  0.1442E-03  0.1968E-04  0.4095E-03  0.0000E+00  0.0000E+00  0.0000E+00  0.0000E+00  0.0000E+00
     -9.178  0.1438E-01  0.1414E-03  0.5498E-04  0.2220E-03  0.0000E+00  0.0000E+00  0.0000E+00  0.0000E+00  0.0000E+00
     -8.846  0.9611E-02  0.6028E-04  0.4798E-04  0.2017E-03  0.0000E+00  0.0000E+00  0.0000E+00  0.0000E+00  0.0000E+00
     -8.513  0.3108E-01  0.2734E-03  0.2272E-04  0.7653E-03  0.0000E+00  0.0000E+00  0.0000E+00  0.0000E+00  0.0000E+00
     -8.181  0.1629E-01  0.1002E-03  0.5268E-04  0.4158E-03  0.0000E+00  0.0000E+00  0.0000E+00  0.0000E+00  0.0000E+00
     -7.849  0.3037E-01  0.2857E-03  0.9296E-04  0.7880E-03  0.0000E+00  0.0000E+00  0.0000E+00  0.0000E+00  0.0000E+00
     -7.517  0.1303E-01  0.8545E-04  0.2161E-04  0.3992E-03  0.0000E+00  0.0000E+00  0.0000E+00  0.0000E+00  0.0000E+00
     -7.185  0.1653E-01  0.2529E-03  0.4173E-04  0.4255E-03  0.0000E+00  0.0000E+00  0.0000E+00  0.0000E+00  0.0000E+00
     -6.852  0.2994E-01  0.3894E-03  0.1308E-03  0.8519E-03  0.0000E+00  0.0000E+00  0.0000E+00  0.0000E+00  0.0000E+00
     -6.520  0.2436E-01  0.3112E-03  0.5910E-04  0.7589E-03  0.0000E+00  0.0000E+00  0.0000E+00  0.0000E+00  0.0000E+00
     -6.188  0.2803E-01  0.2233E-03  0.9352E-04  0.1022E-02  0.0000E+00  0.0000E+00  0.0000E+00  0.0000E+00  0.0000E+00
     -5.856  0.1165E-01  0.8990E-04  0.1557E-04  0.4606E-03  0.0000E+00  0.0000E+00  0.0000E+00  0.0000E+00  0.0000E+00
     -5.524  0.4108E-01  0.6465E-03  0.1398E-03  0.1432E-02  0.0000E+00  0.0000E+00  0.0000E+00  0.0000E+00  0.0000E+00
     -5.191  0.2225E-01  0.3730E-03  0.1367E-03  0.7418E-03  0.0000E+00  0.0000E+00  0.0000E+00  0.0000E+00  0.0000E+00
     -4.859  0.3095E-01  0.4910E-03  0.1149E-03  0.1152E-02  0.0000E+00  0.0000E+00  0.0000E+00  0.0000E+00  0.0000E+00
     -4.527  0.1911E-01  0.2882E-03  0.3936E-04  0.7644E-03  0.0000E+00  0.0000E+00  0.0000E+00  0.0000E+00  0.0000E+00
     -4.195  0.1751E-01  0.1872E-03  0.1080E-03  0.7089E-03  0.0000E+00  0.0000E+00  0.0000E+00  0.0000E+00  0.0000E+00
     -3.863  0.4405E-01  0.6636E-03  0.2552E-03  0.1741E-02  0.0000E+00  0.0000E+00  0.0000E+00  0.0000E+00  0.0000E+00
     -3.530  0.2773E-01  0.5695E-03  0.3560E-04  0.1109E-02  0.0000E+00  0.0000E+00  0.0000E+00  0.0000E+00  0.0000E+00
     -3.198  0.4734E-01  0.7442E-03  0.1578E-03  0.2051E-02  0.0000E+00  0.0000E+00  0.0000E+00  0.0000E+00  0.0000E+00
     -2.866  0.1680E-01  0.3673E-03  0.1073E-03  0.6789E-03  0.0000E+00  0.0000E+00  0.0000E+00  0.0000E+00  0.0000E+00
     -2.534  0.3369E-01  0.5501E-03  0.2438E-03  0.1412E-02  0.0000E+00  0.0000E+00  0.0000E+00  0.0000E+00  0.0000E+00
     -2.202  0.2543E-01  0.4629E-03  0.1275E-03  0.1064E-02  0.0000E+00  0.0000E+00  0.0000E+00  0.0000E+00  0.0000E+00
     -1.869  0.3092E-01  0.6887E-03  0.2016E-03  0.1276E-02  0.0000E+00  0.0000E+00  0.0000E+00  0.0000E+00  0.0000E+00
     -1.537  0.4945E-01  0.9360E-03  0.1542E-03  0.2056E-02  0.0000E+00  0.0000E+00  0.0000E+00  0.0000E+00  0.0000E+00
     -1.205  0.2242E-01  0.3831E-03  0.3367E-04  0.9508E-03  0.0000E+00  0.0000E+00  0.0000E+00  0.0000E+00  0.0000E+00
     -0.873  0.6679E-01  0.1263E-02  0.3074E-03  0.2728E-02  0.0000E+00  0.0000E+00  0.0000E+00  0.0000E+00  0.0000E+00
     -0.541  0.2442E-01  0.4510E-03  0.2697E-03  0.1002E-02  0.0000E+00  0.0000E+00  0.0000E+00  0.0000E+00  0.0000E+00
     -0.208  0.3513E-01  0.6857E-03  0.2829E-03  0.1449E-02  0.0000E+00  0.0000E+00  0.0000E+00  0.0000E+00  0.0000E+00
      0.124  0.4037E-01  0.7984E-03  0.1507E-03  0.1506E-02  0.0000E+00  0.0000E+00  0.0000E+00  0.0000E+00  0.0000E+00
      0.456  0.4828E-01  0.1031E-02  0.1528E-03  0.1534E-02  0.0000E+00  0.0000E+00  0.0000E+00  0.0000E+00  0.0000E+00
      0.788  0.5870E-01  0.1158E-02  0.2669E-03  0.2088E-02  0.0000E+00  0.0000E+00  0.0000E+00  0.0000E+00  0.0000E+00
      1.120  0.5253E-01  0.1047E-02  0.3044E-03  0.1262E-02  0.0000E+00  0.0000E+00  0.0000E+00  0.0000E+00  0.0000E+00
      1.453  0.5776E-01  0.1434E-02  0.3476E-03  0.2061E-02  0.0000E+00  0.0000E+00  0.0000E+00  0.0000E+00  0.0000E+00
      1.785  0.3336E-01  0.4718E-03  0.3327E-03  0.8680E-03  0.0000E+00  0.0000E+00  0.0000E+00  0.0000E+00  0.0000E+00
      2.117  0.6960E-01  0.1511E-02  0.4036E-03  0.1803E-02  0.0000E+00  0.0000E+00  0.0000E+00  0.0000E+00  0.0000E+00
      2.449  0.1876E-01  0.6086E-03  0.1268E-03  0.7326E-03  0.0000E+00  0.0000E+00  0.0000E+00  0.0000E+00  0.0000E+00
      2.781  0.5181E-01  0.1388E-02  0.2467E-03  0.1371E-02  0.0000E+00  0.0000E+00  0.0000E+00  0.0000E+00  0.0000E+00
      3.114  0.6219E-01  0.1769E-02  0.5500E-03  0.2085E-02  0.0000E+00  0.0000E+00  0.0000E+00  0.0000E+00  0.0000E+00
      3.446  0.6611E-01  0.2004E-02  0.5152E-03  0.1736E-02  0.0000E+00  0.0000E+00  0.0000E+00  0.0000E+00  0.0000E+00
      3.778  0.4169E-01  0.1137E-02  0.4277E-03  0.1210E-02  0.0000E+00  0.0000E+00  0.0000E+00  0.0000E+00  0.0000E+00
      4.110  0.3054E-01  0.8197E-03  0.2298E-03  0.5554E-03  0.0000E+00  0.0000E+00  0.0000E+00  0.0000E+00  0.0000E+00
      4.442  0.2256E-01  0.7691E-03  0.3692E-03  0.9039E-03  0.0000E+00  0.0000E+00  0.0000E+00  0.0000E+00  0.0000E+00
      4.775  0.4230E-01  0.1389E-02  0.3714E-03  0.1107E-02  0.0000E+00  0.0000E+00  0.0000E+00  0.0000E+00  0.0000E+00
      5.107  0.9345E-01  0.3217E-02  0.6719E-03  0.2182E-02  0.0000E+00  0.0000E+00  0.0000E+00  0.0000E+00  0.0000E+00
      5.439  0.2450E-01  0.9513E-03  0.4402E-03  0.9189E-03  0.0000E+00  0.0000E+00  0.0000E+00  0.0000E+00  0.0000E+00
      5.771  0.6071E-01  0.2249E-02  0.5724E-03  0.1654E-02  0.0000E+00  0.0000E+00  0.0000E+00  0.0000E+00  0.0000E+00
      6.103  0.2413E-01  0.7460E-03  0.5373E-03  0.6648E-03  0.0000E+00  0.0000E+00  0.0000E+00  0.0000E+00  0.0000E+00
      6.436  0.2774E-01  0.9762E-03  0.4030E-03  0.5665E-03  0.0000E+00  0.0000E+00  0.0000E+00  0.0000E+00  0.0000E+00
      6.768  0.4443E-01  0.1741E-02  0.4335E-03  0.9060E-03  0.0000E+00  0.0000E+00  0.0000E+00  0.0000E+00  0.0000E+00
      7.100  0.4623E-01  0.1908E-02  0.4442E-03  0.9793E-03  0.0000E+00  0.0000E+00  0.0000E+00  0.0000E+00  0.0000E+00
      7.432  0.4822E-01  0.2009E-02  0.5441E-03  0.1370E-02  0.0000E+00  0.0000E+00  0.0000E+00  0.0000E+00  0.0000E+00
      7.764  0.6294E-01  0.2399E-02  0.1166E-02  0.1382E-02  0.0000E+00  0.0000E+00  0.0000E+00  0.0000E+00  0.0000E+00
      8.097  0.3624E-01  0.1475E-02  0.6107E-03  0.1037E-02  0.0000E+00  0.0000E+00  0.0000E+00  0.0000E+00  0.0000E+00
      8.429  0.2054E-01  0.7812E-03  0.2884E-03  0.1302E-03  0.0000E+00  0.0000E+00  0.0000E+00  0.0000E+00  0.0000E+00
      8.761  0.2310E-01  0.9496E-03  0.2962E-03  0.5536E-03  0.0000E+00  0.0000E+00  0.0000E+00  0.0000E+00  0.0000E+00
      9.093  0.4341E-01  0.1787E-02  0.3419E-03  0.5978E-03  0.0000E+00  0.0000E+00  0.0000E+00  0.0000E+00  0.0000E+00
      9.425  0.4766E-01  0.1854E-02  0.1223E-02  0.1309E-02  0.0000E+00  0.0000E+00  0.0000E+00  0.0000E+00  0.0000E+00
      9.757  0.7230E-01  0.2865E-02  0.1209E-02  0.1082E-02  0.0000E+00  0.0000E+00  0.0000E+00  0.0000E+00  0.0000E+00
     10.090  0.3267E-01  0.1212E-02  0.6109E-03  0.3803E-02  0.0000E+00  0.0000E+00  0.0000E+00  0.0000E+00  0.0000E+00
     10.422  0.1006E-01  0.3584E-03  0.1382E-03  0.5842E-02  0.0000E+00  0.0000E+00  0.0000E+00  0.0000E+00  0.0000E+00
     10.754  0.2042E-01  0.7937E-03  0.2809E-03  0.3428E-02  0.0000E+00  0.0000E+00  0.0000E+00  0.0000E+00  0.0000E+00
     11.086  0.3518E-01  0.1005E-02  0.1978E-03  0.8847E-02  0.0000E+00  0.0000E+00  0.0000E+00  0.0000E+00  0.0000E+00
     11.418  0.6333E-01  0.2430E-02  0.1661E-02  0.1524E-02  0.0000E+00  0.0000E+00  0.0000E+00  0.0000E+00  0.0000E+00
     11.751  0.6689E-01  0.2449E-02  0.1481E-02  0.7458E-02  0.0000E+00  0.0000E+00  0.0000E+00  0.0000E+00  0.0000E+00
     12.083  0.1548E-01  0.5370E-03  0.3083E-03  0.8700E-02  0.0000E+00  0.0000E+00  0.0000E+00  0.0000E+00  0.0000E+00
     12.415  0.1385E-01  0.3558E-03  0.2994E-03  0.1170E-02  0.0000E+00  0.0000E+00  0.0000E+00  0.0000E+00  0.0000E+00
     12.747  0.4846E-01  0.8576E-03  0.3929E-03  0.8194E-02  0.0000E+00  0.0000E+00  0.0000E+00  0.0000E+00  0.0000E+00
     13.079  0.1028E-01  0.2182E-03  0.2092E-03  0.6614E-02  0.0000E+00  0.0000E+00  0.0000E+00  0.0000E+00  0.0000E+00
     13.412  0.5224E-01  0.1563E-02  0.1435E-02  0.1324E-01  0.0000E+00  0.0000E+00  0.0000E+00  0.0000E+00  0.0000E+00
     13.744  0.4343E-01  0.1528E-02  0.1459E-02  0.1426E-01  0.0000E+00  0.0000E+00  0.0000E+00  0.0000E+00  0.0000E+00
     14.076  0.4047E-01  0.8541E-03  0.9560E-03  0.9697E-02  0.0000E+00  0.0000E+00  0.0000E+00  0.0000E+00  0.0000E+00
     14.408  0.7766E-02  0.4058E-04  0.8464E-04  0.4279E-02  0.0000E+00  0.0000E+00  0.0000E+00  0.0000E+00  0.0000E+00
     14.740  0.5046E-02  0.5379E-04  0.4683E-05  0.9428E-02  0.0000E+00  0.0000E+00  0.0000E+00  0.0000E+00  0.0000E+00
     15.073  0.5963E-02  0.1864E-03  0.1747E-03  0.1554E-01  0.0000E+00  0.0000E+00  0.0000E+00  0.0000E+00  0.0000E+00
     15.405  0.6745E-01  0.1711E-02  0.2277E-02  0.1345E-01  0.0000E+00  0.0000E+00  0.0000E+00  0.0000E+00  0.0000E+00
     15.737  0.3002E-01  0.9858E-03  0.1198E-02  0.6277E-02  0.0000E+00  0.0000E+00  0.0000E+00  0.0000E+00  0.0000E+00
     16.069  0.5697E-02  0.1089E-03  0.4470E-04  0.1140E-01  0.0000E+00  0.0000E+00  0.0000E+00  0.0000E+00  0.0000E+00
     16.401  0.3795E-02  0.4731E-04  0.2631E-04  0.1008E-01  0.0000E+00  0.0000E+00  0.0000E+00  0.0000E+00  0.0000E+00
     16.734  0.1047E-01  0.9504E-04  0.2340E-03  0.1269E-01  0.0000E+00  0.0000E+00  0.0000E+00  0.0000E+00  0.0000E+00
     17.066  0.2293E-01  0.3317E-03  0.7198E-03  0.9949E-02  0.0000E+00  0.0000E+00  0.0000E+00  0.0000E+00  0.0000E+00
     17.398  0.3861E-01  0.1112E-02  0.1457E-02  0.1436E-01  0.0000E+00  0.0000E+00  0.0000E+00  0.0000E+00  0.0000E+00
     17.730  0.2519E-01  0.4992E-03  0.5424E-03  0.2070E-01  0.0000E+00  0.0000E+00  0.0000E+00  0.0000E+00  0.0000E+00
     18.062  0.8682E-02  0.1200E-03  0.5447E-04  0.2089E-01  0.0000E+00  0.0000E+00  0.0000E+00  0.0000E+00  0.0000E+00
     18.395  0.7306E-02  0.7051E-04  0.1062E-03  0.1455E-01  0.0000E+00  0.0000E+00  0.0000E+00  0.0000E+00  0.0000E+00
     18.727  0.2321E-01  0.1535E-03  0.6138E-03  0.1282E-01  0.0000E+00  0.0000E+00  0.0000E+00  0.0000E+00  0.0000E+00
     19.059  0.2286E-01  0.5405E-03  0.7471E-03  0.1416E-01  0.0000E+00  0.0000E+00  0.0000E+00  0.0000E+00  0.0000E+00
     19.391  0.2109E-01  0.4312E-03  0.5368E-03  0.1277E-01  0.0000E+00  0.0000E+00  0.0000E+00  0.0000E+00  0.0000E+00
     19.723  0.8927E-02  0.1767E-03  0.1454E-03  0.1022E-01  0.0000E+00  0.0000E+00  0.0000E+00  0.0000E+00  0.0000E+00
     20.056  0.1285E-01  0.1360E-03  0.1937E-04  0.3125E-01  0.0000E+00  0.0000E+00  0.0000E+00  0.0000E+00  0.0000E+00
     20.388  0.2079E-01  0.1243E-03  0.6212E-03  0.1618E-01  0.0000E+00  0.0000E+00  0.0000E+00  0.0000E+00  0.0000E+00
     20.720  0.1480E-01  0.1461E-03  0.1686E-03  0.2634E-01  0.0000E+00  0.0000E+00  0.0000E+00  0.0000E+00  0.0000E+00
     21.052  0.1930E-01  0.4125E-03  0.3998E-03  0.5710E-02  0.0000E+00  0.0000E+00  0.0000E+00  0.0000E+00  0.0000E+00
     21.384  0.8994E-03  0.7225E-05  0.7515E-05  0.2195E-02  0.0000E+00  0.0000E+00  0.0000E+00  0.0000E+00  0.0000E+00
     21.717  0.2042E-01  0.1447E-03  0.8723E-04  0.3437E-01  0.0000E+00  0.0000E+00  0.0000E+00  0.0000E+00  0.0000E+00
     22.049  0.1846E-01  0.6950E-04  0.2098E-03  0.1268E-01  0.0000E+00  0.0000E+00  0.0000E+00  0.0000E+00  0.0000E+00
     22.381  0.2537E-01  0.1200E-03  0.2179E-03  0.2923E-01  0.0000E+00  0.0000E+00  0.0000E+00  0.0000E+00  0.0000E+00
     22.713  0.9515E-02  0.9684E-04  0.4485E-04  0.2004E-01  0.0000E+00  0.0000E+00  0.0000E+00  0.0000E+00  0.0000E+00
     23.045  0.1600E-01  0.1213E-03  0.1339E-03  0.3703E-01  0.0000E+00  0.0000E+00  0.0000E+00  0.0000E+00  0.0000E+00
     23.378  0.2276E-01  0.1329E-03  0.6361E-04  0.2495E-01  0.0000E+00  0.0000E+00  0.0000E+00  0.0000E+00  0.0000E+00
     23.710  0.1461E-01  0.4901E-03  0.1825E-04  0.1759E-01  0.0000E+00  0.0000E+00  0.0000E+00  0.0000E+00  0.0000E+00
     24.042  0.1500E-01  0.2062E-02  0.5985E-04  0.1682E-01  0.0000E+00  0.0000E+00  0.0000E+00  0.0000E+00  0.0000E+00
     24.374  0.1005E-01  0.4125E-03  0.3656E-04  0.1847E-01  0.0000E+00  0.0000E+00  0.0000E+00  0.0000E+00  0.0000E+00
     24.706  0.2996E-01  0.3357E-02  0.1521E-03  0.3900E-01  0.0000E+00  0.0000E+00  0.0000E+00  0.0000E+00  0.0000E+00
     25.039  0.7930E-02  0.2201E-03  0.4387E-04  0.1116E-01  0.0000E+00  0.0000E+00  0.0000E+00  0.0000E+00  0.0000E+00
     25.371  0.2356E-01  0.4495E-02  0.1455E-03  0.2525E-01  0.0000E+00  0.0000E+00  0.0000E+00  0.0000E+00  0.0000E+00
     25.703  0.2977E-02  0.2773E-02  0.2658E-04  0.5464E-02  0.0000E+00  0.0000E+00  0.0000E+00  0.0000E+00  0.0000E+00
     26.035  0.9235E-02  0.2807E-02  0.2353E-04  0.1620E-01  0.0000E+00  0.0000E+00  0.0000E+00  0.0000E+00  0.0000E+00
     26.367  0.2393E-01  0.4124E-02  0.9074E-04  0.2254E-01  0.0000E+00  0.0000E+00  0.0000E+00  0.0000E+00  0.0000E+00
     26.700  0.2254E-01  0.5354E-02  0.7837E-04  0.2004E-01  0.0000E+00  0.0000E+00  0.0000E+00  0.0000E+00  0.0000E+00
     27.032  0.1732E-01  0.6603E-02  0.1280E-03  0.3278E-01  0.0000E+00  0.0000E+00  0.0000E+00  0.0000E+00  0.0000E+00
     27.364  0.1249E-01  0.9481E-02  0.3209E-04  0.1513E-01  0.0000E+00  0.0000E+00  0.0000E+00  0.0000E+00  0.0000E+00
     27.696  0.2472E-01  0.1166E-02  0.7347E-04  0.3135E-01  0.0000E+00  0.0000E+00  0.0000E+00  0.0000E+00  0.0000E+00
     28.028  0.7972E-02  0.5894E-02  0.2848E-04  0.1095E-01  0.0000E+00  0.0000E+00  0.0000E+00  0.0000E+00  0.0000E+00
     28.361  0.1635E-01  0.1186E-01  0.3450E-04  0.1650E-01  0.0000E+00  0.0000E+00  0.0000E+00  0.0000E+00  0.0000E+00
     28.693  0.1489E-01  0.1878E-01  0.4636E-04  0.1478E-01  0.0000E+00  0.0000E+00  0.0000E+00  0.0000E+00  0.0000E+00
     29.025  0.2349E-01  0.1390E-01  0.5860E-04  0.2856E-01  0.0000E+00  0.0000E+00  0.0000E+00  0.0000E+00  0.0000E+00
     29.357  0.1567E-01  0.1238E-01  0.2913E-04  0.9852E-02  0.0000E+00  0.0000E+00  0.0000E+00  0.0000E+00  0.0000E+00
     29.689  0.2045E-01  0.1000E-01  0.7754E-05  0.2608E-01  0.0000E+00  0.0000E+00  0.0000E+00  0.0000E+00  0.0000E+00
     30.021  0.1932E-01  0.1908E-01  0.2825E-04  0.2115E-01  0.0000E+00  0.0000E+00  0.0000E+00  0.0000E+00  0.0000E+00
     30.354  0.1838E-01  0.2142E-01  0.4498E-04  0.1595E-01  0.0000E+00  0.0000E+00  0.0000E+00  0.0000E+00  0.0000E+00
     30.686  0.1306E-01  0.1876E-01  0.2063E-04  0.9842E-02  0.0000E+00  0.0000E+00  0.0000E+00  0.0000E+00  0.0000E+00
     31.018  0.2062E-01  0.3296E-02  0.9932E-05  0.9684E-02  0.0000E+00  0.0000E+00  0.0000E+00  0.0000E+00  0.0000E+00
     31.350  0.4170E-02  0.1185E-01  0.7919E-04  0.1297E-01  0.0000E+00  0.0000E+00  0.0000E+00  0.0000E+00  0.0000E+00
     31.682  0.6965E-02  0.2666E-01  0.1856E-03  0.5925E-02  0.0000E+00  0.0000E+00  0.0000E+00  0.0000E+00  0.0000E+00
     32.015  0.1756E-01  0.2549E-01  0.1958E-03  0.1569E-01  0.0000E+00  0.0000E+00  0.0000E+00  0.0000E+00  0.0000E+00
     32.347  0.1242E-01  0.3154E-01  0.2488E-03  0.2047E-01  0.0000E+00  0.0000E+00  0.0000E+00  0.0000E+00  0.0000E+00
     32.679  0.1180E-01  0.1350E-01  0.6518E-04  0.1369E-01  0.0000E+00  0.0000E+00  0.0000E+00  0.0000E+00  0.0000E+00
     33.011  0.1556E-01  0.3189E-01  0.6031E-04  0.1602E-01  0.0000E+00  0.0000E+00  0.0000E+00  0.0000E+00  0.0000E+00
     33.343  0.1606E-01  0.1847E-01  0.1399E-04  0.1196E-01  0.0000E+00  0.0000E+00  0.0000E+00  0.0000E+00  0.0000E+00
     33.676  0.2027E-01  0.2393E-01  0.1297E-04  0.1960E-01  0.0000E+00  0.0000E+00  0.0000E+00  0.0000E+00  0.0000E+00