 running on   16 nodes
 distr:  one band on    4 nodes,    4 groups
 vasp.5.2.12 11Nov11 complex                                                    
  
 POSCAR found type information on POSCAR  H 
 POSCAR found :  1 types and       1 ions
 scaLAPACK will be used

 ----------------------------------------------------------------------------- 
|                                                                             |
|  ADVICE TO THIS USER RUNNING 'VASP/VAMP'   (HEAR YOUR MASTER'S VOICE ...):  |
|                                                                             |
|      You have a (more or less) 'small supercell' and for smaller cells      |
|      it is recommended  to use the reciprocal-space projection scheme!      |
|      The real space optimization is not  efficient for small cells and it   |
|      is also less accurate ...                                              |
|      Therefore set LREAL=.FALSE. in the  INCAR file                         |
|                                                                             |
 ----------------------------------------------------------------------------- 

 LDA part: xc-table for Pade appr. of Perdew
 generate k-points for:   19   19   19
 POSCAR, INCAR and KPOINTS ok, starting setup
 WARNING: small aliasing (wrap around) errors must be expected
 FFT: planning ...(           1 )
 WAVECAR not read
 entering main loop
       N       E                     dE             d eps       ncg     rms          rms(c)
DAV:   1    -0.226588478627E+01   -0.22659E+01   -0.12428E+02  2148   0.617E+01
DAV:   2    -0.228570744791E+01   -0.19823E-01   -0.19822E-01  2148   0.299E+00
DAV:   3    -0.228571157761E+01   -0.41297E-05   -0.41295E-05  2036   0.265E-02
DAV:   4    -0.228571157752E+01    0.85539E-10   -0.33647E-10  1848   0.561E-05
DAV:   5    -0.228571157770E+01   -0.17574E-09   -0.12066E-14  1204   0.412E-07    0.268E-01
DAV:   6    -0.228715789906E+01   -0.14463E-02   -0.10705E-04  1996   0.967E-02    0.168E-01
DAV:   7    -0.228810116728E+01   -0.94327E-03   -0.39833E-04  2028   0.180E-01    0.483E-03
DAV:   8    -0.228809937049E+01    0.17968E-05   -0.37814E-07   880   0.546E-03
   1 F= -.22880994E+01 E0= -.22879131E+01  d E =-.228810E+01
 curvature:   0.00 expect dE= 0.000E+00 dE for cont linesearch  0.000E+00
 trial: gam= 0.00000 g(F)=  0.000E+00 g(S)=  0.214E-03 ort = 0.000E+00 (trialstep = 0.100E+01)
 search vector abs. value=  0.214E-03
 bond charge predicted
       N       E                     dE             d eps       ncg     rms          rms(c)
DAV:   1    -0.228827579950E+01   -0.17463E-03   -0.20969E-04  1768   0.110E-01    0.854E-03
DAV:   2    -0.228827647419E+01   -0.67469E-06   -0.56103E-08   880   0.196E-03
   2 F= -.22882765E+01 E0= -.22880945E+01  d E =-.177104E-03
 trial-energy change:   -0.000177  1 .order   -0.000180   -0.000214   -0.000147
 step:   3.2214(harm=  3.2214)  dis= 0.00000  next Energy=    -2.288443 (dE=-0.344E-03)
 bond charge predicted
       N       E                     dE             d eps       ncg     rms          rms(c)
DAV:   1    -0.228842476427E+01   -0.14896E-03   -0.10537E-03  1824   0.249E-01    0.188E-02
DAV:   2    -0.228842718124E+01   -0.24170E-05   -0.24916E-07   916   0.398E-03
   3 F= -.22884272E+01 E0= -.22882548E+01  d E =-.327811E-03
 curvature:  -1.61 expect dE=-0.185E-06 dE for cont linesearch -0.185E-06
 trial: gam= 0.00000 g(F)=  0.258E-70 g(S)=  0.115E-06 ort =-0.496E-05 (trialstep = 0.144E+01)
 search vector abs. value=  0.115E-06
 reached required accuracy - stopping structural energy minimisation
