PROCAR lm decomposed
# of k-points:  220         # of bands:   4         # of ions:   1

 k-point    1 :    0.00000000 0.00000000 0.00000000     weight = 0.00014579

band   1 # energy  -13.61706914 # occ.  2.00000000
 
ion      s     py     pz     px    dxy    dyz    dz2    dxz    dx2    tot
  1  0.413  0.000  0.000  0.000  0.000  0.000  0.000  0.000  0.000  0.413
 
band   2 # energy   50.29519384 # occ.  0.00000000
 
ion      s     py     pz     px    dxy    dyz    dz2    dxz    dx2    tot
  1  0.493  0.000  0.000  0.000  0.000  0.000  0.000  0.000  0.000  0.493
 
band   3 # energy   61.77386214 # occ.  0.00000000
 
ion      s     py     pz     px    dxy    dyz    dz2    dxz    dx2    tot
  1  0.000  0.164  0.618  0.068  0.000  0.000  0.000  0.000  0.000  0.850
 
band   4 # energy   61.77386226 # occ.  0.00000000
 
ion      s     py     pz     px    dxy    dyz    dz2    dxz    dx2    tot
  1  0.000  0.252  0.001  0.596  0.000  0.000  0.000  0.000  0.000  0.850
 

 k-point    2 :    0.05263158 0.00000000 0.00000000     weight = 0.00087476

band   1 # energy  -13.42133838 # occ.  2.00000000
 
ion      s     py     pz     px    dxy    dyz    dz2    dxz    dx2    tot
  1  0.412  0.000  0.000  0.001  0.000  0.000  0.000  0.000  0.000  0.413
 
band   2 # energy   48.68386601 # occ.  0.00000000
 
ion      s     py     pz     px    dxy    dyz    dz2    dxz    dx2    tot
  1  0.419  0.000  0.000  0.081  0.000  0.000  0.000  0.000  0.000  0.500
 
band   3 # energy   57.96197499 # occ.  0.00000000
 
ion      s     py     pz     px    dxy    dyz    dz2    dxz    dx2    tot
  1  0.065  0.000  0.000  0.364  0.000  0.000  0.000  0.000  0.000  0.429
 
band   4 # energy   61.97497898 # occ.  0.00000000
 
ion      s     py     pz     px    dxy    dyz    dz2    dxz    dx2    tot
  1  0.000  0.558  0.294  0.000  0.000  0.000  0.000  0.000  0.000  0.852
 

 k-point    3 :    0.10526316 0.00000000 0.00000000     weight = 0.00087476

band   1 # energy  -12.83497790 # occ.  2.00000000
 
ion      s     py     pz     px    dxy    dyz    dz2    dxz    dx2    tot
  1  0.411  0.000  0.000  0.003  0.000  0.000  0.000  0.000  0.000  0.414
 
band   2 # energy   44.00157863 # occ.  0.00000000
 
ion      s     py     pz     px    dxy    dyz    dz2    dxz    dx2    tot
  1  0.280  0.000  0.000  0.188  0.000  0.000  0.000  0.000  0.000  0.468
 
band   3 # energy   56.58536410 # occ.  0.00000000
 
ion      s     py     pz     px    dxy    dyz    dz2    dxz    dx2    tot
  1  0.196  0.000  0.000  0.193  0.000  0.000  0.000  0.000  0.000  0.389
 
band   4 # energy   62.57803693 # occ.  0.00000000
 
ion      s     py     pz     px    dxy    dyz    dz2    dxz    dx2    tot
  1  0.000  0.579  0.278  0.000  0.000  0.000  0.000  0.000  0.000  0.857
 

 k-point    4 :    0.15789474 0.00000000 0.00000000     weight = 0.00087476

band   1 # energy  -11.86472298 # occ.  2.00000000
 
ion      s     py     pz     px    dxy    dyz    dz2    dxz    dx2    tot
  1  0.410  0.000  0.000  0.005  0.000  0.000  0.000  0.000  0.000  0.415
 
band   2 # energy   38.12498839 # occ.  0.00000000
 
ion      s     py     pz     px    dxy    dyz    dz2    dxz    dx2    tot
  1  0.214  0.000  0.000  0.236  0.000  0.000  0.000  0.000  0.000  0.450
 
band   3 # energy   56.92233713 # occ.  0.00000000
 
ion      s     py     pz     px    dxy    dyz    dz2    dxz    dx2    tot
  1  0.259  0.000  0.000  0.126  0.000  0.000  0.000  0.000  0.000  0.385
 
band   4 # energy   63.58054493 # occ.  0.00000000
 
ion      s     py     pz     px    dxy    dyz    dz2    dxz    dx2    tot
  1  0.000  0.499  0.371  0.000  0.000  0.000  0.000  0.000  0.000  0.870
 

 k-point    5 :    0.21052632 0.00000000 0.00000000     weight = 0.00087476

band   1 # energy  -10.50978611 # occ.  2.00000000
 
ion      s     py     pz     px    dxy    dyz    dz2    dxz    dx2    tot
  1  0.410  0.000  0.000  0.008  0.000  0.000  0.000  0.000  0.000  0.419
 
band   2 # energy   32.26925012 # occ.  0.00000000
 
ion      s     py     pz     px    dxy    dyz    dz2    dxz    dx2    tot
  1  0.186  0.000  0.000  0.224  0.000  0.000  0.000  0.000  0.000  0.411
 
band   3 # energy   57.96910579 # occ.  0.00000000
 
ion      s     py     pz     px    dxy    dyz    dz2    dxz    dx2    tot
  1  0.287  0.000  0.000  0.109  0.000  0.000  0.000  0.000  0.000  0.396
 
band   4 # energy   64.98320562 # occ.  0.00000000
 
ion      s     py     pz     px    dxy    dyz    dz2    dxz    dx2    tot
  1  0.000  0.517  0.368  0.000  0.000  0.000  0.000  0.000  0.000  0.885
 

 k-point    6 :    0.26315789 0.00000000 0.00000000     weight = 0.00087476

band   1 # energy   -8.78453311 # occ.  2.00000000
 
ion      s     py     pz     px    dxy    dyz    dz2    dxz    dx2    tot
  1  0.412  0.000  0.000  0.013  0.000  0.000  0.000  0.000  0.000  0.425
 
band   2 # energy   26.68622052 # occ.  0.00000000
 
ion      s     py     pz     px    dxy    dyz    dz2    dxz    dx2    tot
  1  0.171  0.000  0.000  0.205  0.000  0.000  0.000  0.000  0.000  0.376
 
band   3 # energy   59.46083202 # occ.  0.00000000
 
ion      s     py     pz     px    dxy    dyz    dz2    dxz    dx2    tot
  1  0.306  0.000  0.000  0.105  0.000  0.000  0.000  0.000  0.000  0.411
 
band   4 # energy   66.78045130 # occ.  0.00000000
 
ion      s     py     pz     px    dxy    dyz    dz2    dxz    dx2    tot
  1  0.000  0.457  0.451  0.000  0.000  0.000  0.000  0.000  0.000  0.908
 

 k-point    7 :    0.31578947 0.00000000 0.00000000     weight = 0.00087476

band   1 # energy   -6.71999256 # occ.  2.00000000
 
ion      s     py     pz     px    dxy    dyz    dz2    dxz    dx2    tot
  1  0.419  0.000  0.000  0.017  0.000  0.000  0.000  0.000  0.000  0.436
 
band   2 # energy   21.47884296 # occ.  0.00000000
 
ion      s     py     pz     px    dxy    dyz    dz2    dxz    dx2    tot
  1  0.158  0.000  0.000  0.189  0.000  0.000  0.000  0.000  0.000  0.347
 
band   3 # energy   61.24284553 # occ.  0.00000000
 
ion      s     py     pz     px    dxy    dyz    dz2    dxz    dx2    tot
  1  0.324  0.000  0.000  0.096  0.000  0.000  0.000  0.000  0.000  0.420
 
band   4 # energy   68.95150680 # occ.  0.00000000
 
ion      s     py     pz     px    dxy    dyz    dz2    dxz    dx2    tot
  1  0.000  0.034  0.930  0.000  0.000  0.000  0.000  0.000  0.000  0.964
 

 k-point    8 :    0.36842105 0.00000000 0.00000000     weight = 0.00087476

band   1 # energy   -4.36054222 # occ.  2.00000000
 
ion      s     py     pz     px    dxy    dyz    dz2    dxz    dx2    tot
  1  0.436  0.000  0.000  0.021  0.000  0.000  0.000  0.000  0.000  0.457
 
band   2 # energy   16.75976117 # occ.  0.00000000
 
ion      s     py     pz     px    dxy    dyz    dz2    dxz    dx2    tot
  1  0.137  0.000  0.000  0.174  0.000  0.000  0.000  0.000  0.000  0.311
 
band   3 # energy   63.24515646 # occ.  0.00000000
 
ion      s     py     pz     px    dxy    dyz    dz2    dxz    dx2    tot
  1  0.347  0.000  0.000  0.084  0.000  0.000  0.000  0.000  0.000  0.431
 
band   4 # energy   71.49440652 # occ.  0.00000000
 
ion      s     py     pz     px    dxy    dyz    dz2    dxz    dx2    tot
  1  0.000  0.018  1.011  0.000  0.000  0.000  0.000  0.000  0.000  1.029
 

 k-point    9 :    0.42105263 0.00000000 0.00000000     weight = 0.00087476

band   1 # energy   -1.88580235 # occ.  2.00000000
 
ion      s     py     pz     px    dxy    dyz    dz2    dxz    dx2    tot
  1  0.476  0.000  0.000  0.016  0.000  0.000  0.000  0.000  0.000  0.493
 
band   2 # energy   12.68510132 # occ.  0.00000000
 
ion      s     py     pz     px    dxy    dyz    dz2    dxz    dx2    tot
  1  0.094  0.000  0.000  0.177  0.000  0.000  0.000  0.000  0.000  0.271
 
band   3 # energy   65.16050876 # occ.  0.00000000
 
ion      s     py     pz     px    dxy    dyz    dz2    dxz    dx2    tot
  1  0.381  0.000  0.000  0.046  0.000  0.000  0.000  0.000  0.000  0.427
 
band   4 # energy   74.31624326 # occ.  0.00000000
 
ion      s     py     pz     px    dxy    dyz    dz2    dxz    dx2    tot
  1  0.000  0.768  0.400  0.000  0.000  0.000  0.000  0.000  0.000  1.168
 

 k-point   10 :    0.47368421 0.00000000 0.00000000     weight = 0.00087476

band   1 # energy    0.11863896 # occ.  2.00000000
 
ion      s     py     pz     px    dxy    dyz    dz2    dxz    dx2    tot
  1  0.549  0.000  0.000  0.004  0.000  0.000  0.000  0.000  0.000  0.554
 
band   2 # energy    9.88943460 # occ.  0.00000000
 
ion      s     py     pz     px    dxy    dyz    dz2    dxz    dx2    tot
  1  0.020  0.000  0.000  0.185  0.000  0.000  0.000  0.000  0.000  0.205
 
band   3 # energy   66.48847762 # occ.  0.00000000
 
ion      s     py     pz     px    dxy    dyz    dz2    dxz    dx2    tot
  1  0.415  0.000  0.000  0.008  0.000  0.000  0.000  0.000  0.000  0.422
 
band   4 # energy   76.98200308 # occ.  0.00000000
 
ion      s     py     pz     px    dxy    dyz    dz2    dxz    dx2    tot
  1  0.000  0.634  0.865  0.000  0.000  0.000  0.000  0.000  0.000  1.499
 

 k-point   11 :    0.05263158 0.05263158 0.00000000     weight = 0.00174953

band   1 # energy  -13.22563348 # occ.  2.00000000
 
ion      s     py     pz     px    dxy    dyz    dz2    dxz    dx2    tot
  1  0.412  0.001  0.000  0.001  0.000  0.000  0.000  0.000  0.000  0.413
 
band   2 # energy   47.75620532 # occ.  0.00000000
 
ion      s     py     pz     px    dxy    dyz    dz2    dxz    dx2    tot
  1  0.410  0.047  0.000  0.047  0.000  0.000  0.000  0.000  0.000  0.504
 
band   3 # energy   55.40542148 # occ.  0.00000000
 
ion      s     py     pz     px    dxy    dyz    dz2    dxz    dx2    tot
  1  0.000  0.232  0.000  0.232  0.000  0.000  0.000  0.000  0.000  0.464
 
band   4 # energy   60.57050257 # occ.  0.00000000
 
ion      s     py     pz     px    dxy    dyz    dz2    dxz    dx2    tot
  1  0.061  0.159  0.000  0.159  0.000  0.000  0.000  0.000  0.000  0.379
 

 k-point   12 :    0.10526316 0.05263158 0.00000000     weight = 0.00349905

band   1 # energy  -12.64078936 # occ.  2.00000000
 
ion      s     py     pz     px    dxy    dyz    dz2    dxz    dx2    tot
  1  0.411  0.001  0.000  0.003  0.000  0.000  0.000  0.000  0.000  0.414
 
band   2 # energy   43.90564887 # occ.  0.00000000
 
ion      s     py     pz     px    dxy    dyz    dz2    dxz    dx2    tot
  1  0.299  0.006  0.000  0.174  0.000  0.000  0.000  0.000  0.000  0.479
 
band   3 # energy   53.46058281 # occ.  0.00000000
 
ion      s     py     pz     px    dxy    dyz    dz2    dxz    dx2    tot
  1  0.084  0.218  0.000  0.147  0.000  0.000  0.000  0.000  0.000  0.449
 
band   4 # energy   60.93084113 # occ.  0.00000000
 
ion      s     py     pz     px    dxy    dyz    dz2    dxz    dx2    tot
  1  0.077  0.212  0.000  0.058  0.000  0.000  0.000  0.000  0.000  0.346
 

 k-point   13 :    0.15789474 0.05263158 0.00000000     weight = 0.00349905

band   1 # energy  -11.66774682 # occ.  2.00000000
 
ion      s     py     pz     px    dxy    dyz    dz2    dxz    dx2    tot
  1  0.410  0.001  0.000  0.005  0.000  0.000  0.000  0.000  0.000  0.416
 
band   2 # energy   38.25905347 # occ.  0.00000000
 
ion      s     py     pz     px    dxy    dyz    dz2    dxz    dx2    tot
  1  0.221  0.000  0.000  0.225  0.000  0.000  0.000  0.000  0.000  0.446
 
band   3 # energy   53.67403779 # occ.  0.00000000
 
ion      s     py     pz     px    dxy    dyz    dz2    dxz    dx2    tot
  1  0.155  0.211  0.000  0.091  0.000  0.000  0.000  0.000  0.000  0.456
 
band   4 # energy   61.86477941 # occ.  0.00000000
 
ion      s     py     pz     px    dxy    dyz    dz2    dxz    dx2    tot
  1  0.080  0.227  0.000  0.035  0.000  0.000  0.000  0.000  0.000  0.342
 

 k-point   14 :    0.21052632 0.05263158 0.00000000     weight = 0.00349905

band   1 # energy  -10.31615052 # occ.  2.00000000
 
ion      s     py     pz     px    dxy    dyz    dz2    dxz    dx2    tot
  1  0.410  0.001  0.000  0.008  0.000  0.000  0.000  0.000  0.000  0.419
 
band   2 # energy   32.43471670 # occ.  0.00000000
 
ion      s     py     pz     px    dxy    dyz    dz2    dxz    dx2    tot
  1  0.189  0.000  0.000  0.225  0.000  0.000  0.000  0.000  0.000  0.414
 
band   3 # energy   54.72674388 # occ.  0.00000000
 
ion      s     py     pz     px    dxy    dyz    dz2    dxz    dx2    tot
  1  0.187  0.213  0.000  0.075  0.000  0.000  0.000  0.000  0.000  0.474
 
band   4 # energy   63.21186341 # occ.  0.00000000
 
ion      s     py     pz     px    dxy    dyz    dz2    dxz    dx2    tot
  1  0.081  0.240  0.000  0.028  0.000  0.000  0.000  0.000  0.000  0.350
 

 k-point   15 :    0.26315789 0.05263158 0.00000000     weight = 0.00349905

band   1 # energy   -8.59142217 # occ.  2.00000000
 
ion      s     py     pz     px    dxy    dyz    dz2    dxz    dx2    tot
  1  0.412  0.001  0.000  0.013  0.000  0.000  0.000  0.000  0.000  0.426
 
band   2 # energy   26.86782120 # occ.  0.00000000
 
ion      s     py     pz     px    dxy    dyz    dz2    dxz    dx2    tot
  1  0.173  0.000  0.000  0.206  0.000  0.000  0.000  0.000  0.000  0.379
 
band   3 # energy   56.28041289 # occ.  0.00000000
 
ion      s     py     pz     px    dxy    dyz    dz2    dxz    dx2    tot
  1  0.206  0.212  0.000  0.072  0.000  0.000  0.000  0.000  0.000  0.491
 
band   4 # energy   64.94540827 # occ.  0.00000000
 
ion      s     py     pz     px    dxy    dyz    dz2    dxz    dx2    tot
  1  0.082  0.253  0.000  0.025  0.000  0.000  0.000  0.000  0.000  0.360
 

 k-point   16 :    0.31578947 0.05263158 0.00000000     weight = 0.00349905

band   1 # energy   -6.52418317 # occ.  2.00000000
 
ion      s     py     pz     px    dxy    dyz    dz2    dxz    dx2    tot
  1  0.419  0.001  0.000  0.018  0.000  0.000  0.000  0.000  0.000  0.437
 
band   2 # energy   21.67256028 # occ.  0.00000000
 
ion      s     py     pz     px    dxy    dyz    dz2    dxz    dx2    tot
  1  0.158  0.000  0.000  0.189  0.000  0.000  0.000  0.000  0.000  0.347
 
band   3 # energy   58.19121246 # occ.  0.00000000
 
ion      s     py     pz     px    dxy    dyz    dz2    dxz    dx2    tot
  1  0.225  0.212  0.000  0.071  0.000  0.000  0.000  0.000  0.000  0.508
 
band   4 # energy   67.02700874 # occ.  0.00000000
 
ion      s     py     pz     px    dxy    dyz    dz2    dxz    dx2    tot
  1  0.082  0.271  0.000  0.020  0.000  0.000  0.000  0.000  0.000  0.373
 

 k-point   17 :    0.36842105 0.05263158 0.00000000     weight = 0.00349905

band   1 # energy   -4.16535470 # occ.  2.00000000
 
ion      s     py     pz     px    dxy    dyz    dz2    dxz    dx2    tot
  1  0.436  0.001  0.000  0.021  0.000  0.000  0.000  0.000  0.000  0.458
 
band   2 # energy   16.95698790 # occ.  0.00000000
 
ion      s     py     pz     px    dxy    dyz    dz2    dxz    dx2    tot
  1  0.137  0.000  0.000  0.173  0.000  0.000  0.000  0.000  0.000  0.311
 
band   3 # energy   60.36057322 # occ.  0.00000000
 
ion      s     py     pz     px    dxy    dyz    dz2    dxz    dx2    tot
  1  0.250  0.213  0.000  0.066  0.000  0.000  0.000  0.000  0.000  0.529
 
band   4 # energy   69.42641679 # occ.  0.00000000
 
ion      s     py     pz     px    dxy    dyz    dz2    dxz    dx2    tot
  1  0.084  0.297  0.000  0.011  0.000  0.000  0.000  0.000  0.000  0.392
 

 k-point   18 :    0.42105263 0.05263158 0.00000000     weight = 0.00349905

band   1 # energy   -1.68810375 # occ.  2.00000000
 
ion      s     py     pz     px    dxy    dyz    dz2    dxz    dx2    tot
  1  0.476  0.001  0.000  0.018  0.000  0.000  0.000  0.000  0.000  0.495
 
band   2 # energy   12.89129060 # occ.  0.00000000
 
ion      s     py     pz     px    dxy    dyz    dz2    dxz    dx2    tot
  1  0.095  0.000  0.000  0.172  0.000  0.000  0.000  0.000  0.000  0.267
 
band   3 # energy   62.53750983 # occ.  0.00000000
 
ion      s     py     pz     px    dxy    dyz    dz2    dxz    dx2    tot
  1  0.288  0.222  0.000  0.043  0.000  0.000  0.000  0.000  0.000  0.553
 
band   4 # energy   72.00002287 # occ.  0.00000000
 
ion      s     py     pz     px    dxy    dyz    dz2    dxz    dx2    tot
  1  0.083  0.331  0.000  0.000  0.000  0.000  0.000  0.000  0.000  0.414
 

 k-point   19 :    0.47368421 0.05263158 0.00000000     weight = 0.00349905

band   1 # energy    0.30806930 # occ.  2.00000000
 
ion      s     py     pz     px    dxy    dyz    dz2    dxz    dx2    tot
  1  0.549  0.001  0.000  0.004  0.000  0.000  0.000  0.000  0.000  0.555
 
band   2 # energy   10.09064967 # occ.  0.00000000
 
ion      s     py     pz     px    dxy    dyz    dz2    dxz    dx2    tot
  1  0.020  0.000  0.000  0.185  0.000  0.000  0.000  0.000  0.000  0.205
 
band   3 # energy   64.13148099 # occ.  0.00000000
 
ion      s     py     pz     px    dxy    dyz    dz2    dxz    dx2    tot
  1  0.335  0.219  0.000  0.008  0.000  0.000  0.000  0.000  0.000  0.561
 
band   4 # energy   74.35344317 # occ.  0.00000000
 
ion      s     py     pz     px    dxy    dyz    dz2    dxz    dx2    tot
  1  0.059  0.343  0.000  0.057  0.000  0.000  0.000  0.000  0.000  0.459
 

 k-point   20 :    0.10526316 0.10526316 0.00000000     weight = 0.00174953

band   1 # energy  -12.05640999 # occ.  2.00000000
 
ion      s     py     pz     px    dxy    dyz    dz2    dxz    dx2    tot
  1  0.410  0.002  0.000  0.002  0.000  0.000  0.000  0.000  0.000  0.415
 
band   2 # energy   42.77889744 # occ.  0.00000000
 
ion      s     py     pz     px    dxy    dyz    dz2    dxz    dx2    tot
  1  0.334  0.078  0.000  0.078  0.000  0.000  0.000  0.000  0.000  0.490
 
band   3 # energy   48.94532936 # occ.  0.00000000
 
ion      s     py     pz     px    dxy    dyz    dz2    dxz    dx2    tot
  1  0.000  0.213  0.000  0.213  0.000  0.000  0.000  0.000  0.000  0.425
 
band   4 # energy   61.13038279 # occ.  0.00000000
 
ion      s     py     pz     px    dxy    dyz    dz2    dxz    dx2    tot
  1  0.112  0.085  0.000  0.085  0.000  0.000  0.000  0.000  0.000  0.283
 

 k-point   21 :    0.15789474 0.10526316 0.00000000     weight = 0.00349905

band   1 # energy  -11.08398179 # occ.  2.00000000
 
ion      s     py     pz     px    dxy    dyz    dz2    dxz    dx2    tot
  1  0.409  0.003  0.000  0.005  0.000  0.000  0.000  0.000  0.000  0.417
 
band   2 # energy   38.48618765 # occ.  0.00000000
 
ion      s     py     pz     px    dxy    dyz    dz2    dxz    dx2    tot
  1  0.251  0.006  0.000  0.201  0.000  0.000  0.000  0.000  0.000  0.458
 
band   3 # energy   47.85393492 # occ.  0.00000000
 
ion      s     py     pz     px    dxy    dyz    dz2    dxz    dx2    tot
  1  0.069  0.278  0.000  0.093  0.000  0.000  0.000  0.000  0.000  0.440
 
band   4 # energy   62.00654386 # occ.  0.00000000
 
ion      s     py     pz     px    dxy    dyz    dz2    dxz    dx2    tot
  1  0.123  0.093  0.000  0.053  0.000  0.000  0.000  0.000  0.000  0.269
 

 k-point   22 :    0.21052632 0.10526316 0.00000000     weight = 0.00349905

band   1 # energy   -9.73159294 # occ.  2.00000000
 
ion      s     py     pz     px    dxy    dyz    dz2    dxz    dx2    tot
  1  0.409  0.003  0.000  0.008  0.000  0.000  0.000  0.000  0.000  0.420
 
band   2 # energy   32.91592589 # occ.  0.00000000
 
ion      s     py     pz     px    dxy    dyz    dz2    dxz    dx2    tot
  1  0.200  0.000  0.000  0.218  0.000  0.000  0.000  0.000  0.000  0.419
 
band   3 # energy   48.70967818 # occ.  0.00000000
 
ion      s     py     pz     px    dxy    dyz    dz2    dxz    dx2    tot
  1  0.116  0.285  0.000  0.061  0.000  0.000  0.000  0.000  0.000  0.461
 
band   4 # energy   63.30788870 # occ.  0.00000000
 
ion      s     py     pz     px    dxy    dyz    dz2    dxz    dx2    tot
  1  0.128  0.097  0.000  0.043  0.000  0.000  0.000  0.000  0.000  0.269
 

 k-point   23 :    0.26315789 0.10526316 0.00000000     weight = 0.00349905

band   1 # energy   -8.00526039 # occ.  2.00000000
 
ion      s     py     pz     px    dxy    dyz    dz2    dxz    dx2    tot
  1  0.411  0.002  0.000  0.013  0.000  0.000  0.000  0.000  0.000  0.427
 
band   2 # energy   27.41557013 # occ.  0.00000000
 
ion      s     py     pz     px    dxy    dyz    dz2    dxz    dx2    tot
  1  0.177  0.000  0.000  0.205  0.000  0.000  0.000  0.000  0.000  0.382
 
band   3 # energy   50.25170692 # occ.  0.00000000
 
ion      s     py     pz     px    dxy    dyz    dz2    dxz    dx2    tot
  1  0.137  0.291  0.000  0.054  0.000  0.000  0.000  0.000  0.000  0.482
 
band   4 # energy   64.98661496 # occ.  0.00000000
 
ion      s     py     pz     px    dxy    dyz    dz2    dxz    dx2    tot
  1  0.133  0.096  0.000  0.037  0.000  0.000  0.000  0.000  0.000  0.266
 

 k-point   24 :    0.31578947 0.10526316 0.00000000     weight = 0.00349905

band   1 # energy   -5.93972312 # occ.  2.00000000
 
ion      s     py     pz     px    dxy    dyz    dz2    dxz    dx2    tot
  1  0.418  0.003  0.000  0.017  0.000  0.000  0.000  0.000  0.000  0.438
 
band   2 # energy   22.24495290 # occ.  0.00000000
 
ion      s     py     pz     px    dxy    dyz    dz2    dxz    dx2    tot
  1  0.161  0.001  0.000  0.189  0.000  0.000  0.000  0.000  0.000  0.350
 
band   3 # energy   52.22325186 # occ.  0.00000000
 
ion      s     py     pz     px    dxy    dyz    dz2    dxz    dx2    tot
  1  0.153  0.299  0.000  0.053  0.000  0.000  0.000  0.000  0.000  0.505
 
band   4 # energy   66.95362081 # occ.  0.00000000
 
ion      s     py     pz     px    dxy    dyz    dz2    dxz    dx2    tot
  1  0.142  0.095  0.000  0.027  0.000  0.000  0.000  0.000  0.000  0.263
 

 k-point   25 :    0.36842105 0.10526316 0.00000000     weight = 0.00349905

band   1 # energy   -3.58649479 # occ.  2.00000000
 
ion      s     py     pz     px    dxy    dyz    dz2    dxz    dx2    tot
  1  0.436  0.003  0.000  0.020  0.000  0.000  0.000  0.000  0.000  0.458
 
band   2 # energy   17.53329701 # occ.  0.00000000
 
ion      s     py     pz     px    dxy    dyz    dz2    dxz    dx2    tot
  1  0.138  0.001  0.000  0.180  0.000  0.000  0.000  0.000  0.000  0.318
 
band   3 # energy   54.50762150 # occ.  0.00000000
 
ion      s     py     pz     px    dxy    dyz    dz2    dxz    dx2    tot
  1  0.171  0.319  0.000  0.047  0.000  0.000  0.000  0.000  0.000  0.538
 
band   4 # energy   69.05446204 # occ.  0.00000000
 
ion      s     py     pz     px    dxy    dyz    dz2    dxz    dx2    tot
  1  0.157  0.074  0.000  0.006  0.000  0.000  0.000  0.000  0.000  0.237
 

 k-point   26 :    0.42105263 0.10526316 0.00000000     weight = 0.00349905

band   1 # energy   -1.11136313 # occ.  2.00000000
 
ion      s     py     pz     px    dxy    dyz    dz2    dxz    dx2    tot
  1  0.477  0.003  0.000  0.018  0.000  0.000  0.000  0.000  0.000  0.497
 
band   2 # energy   13.48520906 # occ.  0.00000000
 
ion      s     py     pz     px    dxy    dyz    dz2    dxz    dx2    tot
  1  0.095  0.000  0.000  0.174  0.000  0.000  0.000  0.000  0.000  0.269
 
band   3 # energy   56.91654483 # occ.  0.00000000
 
ion      s     py     pz     px    dxy    dyz    dz2    dxz    dx2    tot
  1  0.200  0.351  0.000  0.035  0.000  0.000  0.000  0.000  0.000  0.586
 
band   4 # energy   70.09384727 # occ.  0.00000000
 
ion      s     py     pz     px    dxy    dyz    dz2    dxz    dx2    tot
  1  0.129  0.002  0.000  0.062  0.000  0.000  0.000  0.000  0.000  0.192
 

 k-point   27 :    0.47368421 0.10526316 0.00000000     weight = 0.00349905

band   1 # energy    0.88719087 # occ.  2.00000000
 
ion      s     py     pz     px    dxy    dyz    dz2    dxz    dx2    tot
  1  0.550  0.003  0.000  0.005  0.000  0.000  0.000  0.000  0.000  0.558
 
band   2 # energy   10.69845969 # occ.  0.00000000
 
ion      s     py     pz     px    dxy    dyz    dz2    dxz    dx2    tot
  1  0.020  0.000  0.000  0.183  0.000  0.000  0.000  0.000  0.000  0.203
 
band   3 # energy   58.83981846 # occ.  0.00000000
 
ion      s     py     pz     px    dxy    dyz    dz2    dxz    dx2    tot
  1  0.242  0.401  0.000  0.008  0.000  0.000  0.000  0.000  0.000  0.651
 
band   4 # energy   68.50715563 # occ.  0.00000000
 
ion      s     py     pz     px    dxy    dyz    dz2    dxz    dx2    tot
  1  0.016  0.005  0.000  0.217  0.000  0.000  0.000  0.000  0.000  0.239
 

 k-point   28 :    0.15789474 0.15789474 0.00000000     weight = 0.00174953

band   1 # energy  -10.11244864 # occ.  2.00000000
 
ion      s     py     pz     px    dxy    dyz    dz2    dxz    dx2    tot
  1  0.409  0.005  0.000  0.005  0.000  0.000  0.000  0.000  0.000  0.418
 
band   2 # energy   37.70651380 # occ.  0.00000000
 
ion      s     py     pz     px    dxy    dyz    dz2    dxz    dx2    tot
  1  0.303  0.083  0.000  0.083  0.000  0.000  0.000  0.000  0.000  0.468
 
band   3 # energy   43.26588451 # occ.  0.00000000
 
ion      s     py     pz     px    dxy    dyz    dz2    dxz    dx2    tot
  1  0.000  0.208  0.000  0.208  0.000  0.000  0.000  0.000  0.000  0.415
 
band   4 # energy   62.85392165 # occ.  0.00000000
 
ion      s     py     pz     px    dxy    dyz    dz2    dxz    dx2    tot
  1  0.136  0.057  0.000  0.057  0.000  0.000  0.000  0.000  0.000  0.250
 

 k-point   29 :    0.21052632 0.15789474 0.00000000     weight = 0.00349905

band   1 # energy   -8.75975950 # occ.  2.00000000
 
ion      s     py     pz     px    dxy    dyz    dz2    dxz    dx2    tot
  1  0.409  0.005  0.000  0.009  0.000  0.000  0.000  0.000  0.000  0.422
 
band   2 # energy   33.55843967 # occ.  0.00000000
 
ion      s     py     pz     px    dxy    dyz    dz2    dxz    dx2    tot
  1  0.232  0.004  0.000  0.188  0.000  0.000  0.000  0.000  0.000  0.424
 
band   3 # energy   42.72518873 # occ.  0.00000000
 
ion      s     py     pz     px    dxy    dyz    dz2    dxz    dx2    tot
  1  0.065  0.289  0.000  0.083  0.000  0.000  0.000  0.000  0.000  0.436
 
band   4 # energy   64.12260625 # occ.  0.00000000
 
ion      s     py     pz     px    dxy    dyz    dz2    dxz    dx2    tot
  1  0.145  0.056  0.000  0.045  0.000  0.000  0.000  0.000  0.000  0.246
 

 k-point   30 :    0.26315789 0.15789474 0.00000000     weight = 0.00349905

band   1 # energy   -7.03983245 # occ.  2.00000000
 
ion      s     py     pz     px    dxy    dyz    dz2    dxz    dx2    tot
  1  0.411  0.005  0.000  0.013  0.000  0.000  0.000  0.000  0.000  0.430
 
band   2 # energy   28.28575288 # occ.  0.00000000
 
ion      s     py     pz     px    dxy    dyz    dz2    dxz    dx2    tot
  1  0.189  0.000  0.000  0.199  0.000  0.000  0.000  0.000  0.000  0.388
 
band   3 # energy   44.04712538 # occ.  0.00000000
 
ion      s     py     pz     px    dxy    dyz    dz2    dxz    dx2    tot
  1  0.105  0.299  0.000  0.056  0.000  0.000  0.000  0.000  0.000  0.460
 
band   4 # energy   65.72380634 # occ.  0.00000000
 
ion      s     py     pz     px    dxy    dyz    dz2    dxz    dx2    tot
  1  0.155  0.051  0.000  0.034  0.000  0.000  0.000  0.000  0.000  0.240
 

 k-point   31 :    0.31578947 0.15789474 0.00000000     weight = 0.00349905

band   1 # energy   -4.97759710 # occ.  2.00000000
 
ion      s     py     pz     px    dxy    dyz    dz2    dxz    dx2    tot
  1  0.418  0.005  0.000  0.018  0.000  0.000  0.000  0.000  0.000  0.442
 
band   2 # energy   23.18275508 # occ.  0.00000000
 
ion      s     py     pz     px    dxy    dyz    dz2    dxz    dx2    tot
  1  0.165  0.001  0.000  0.188  0.000  0.000  0.000  0.000  0.000  0.354
 
band   3 # energy   45.98503957 # occ.  0.00000000
 
ion      s     py     pz     px    dxy    dyz    dz2    dxz    dx2    tot
  1  0.124  0.310  0.000  0.050  0.000  0.000  0.000  0.000  0.000  0.484
 
band   4 # energy   67.44135837 # occ.  0.00000000
 
ion      s     py     pz     px    dxy    dyz    dz2    dxz    dx2    tot
  1  0.175  0.029  0.000  0.011  0.000  0.000  0.000  0.000  0.000  0.215
 

 k-point   32 :    0.36842105 0.15789474 0.00000000     weight = 0.00349905

band   1 # energy   -2.62629430 # occ.  2.00000000
 
ion      s     py     pz     px    dxy    dyz    dz2    dxz    dx2    tot
  1  0.436  0.006  0.000  0.020  0.000  0.000  0.000  0.000  0.000  0.463
 
band   2 # energy   18.50123786 # occ.  0.00000000
 
ion      s     py     pz     px    dxy    dyz    dz2    dxz    dx2    tot
  1  0.139  0.001  0.000  0.181  0.000  0.000  0.000  0.000  0.000  0.322
 
band   3 # energy   48.32209410 # occ.  0.00000000
 
ion      s     py     pz     px    dxy    dyz    dz2    dxz    dx2    tot
  1  0.141  0.318  0.000  0.043  0.000  0.000  0.000  0.000  0.000  0.502
 
band   4 # energy   67.72379785 # occ.  0.00000000
 
ion      s     py     pz     px    dxy    dyz    dz2    dxz    dx2    tot
  1  0.153  0.014  0.000  0.052  0.000  0.000  0.000  0.000  0.000  0.218
 

 k-point   33 :    0.42105263 0.15789474 0.00000000     weight = 0.00349905

band   1 # energy   -0.16011403 # occ.  2.00000000
 
ion      s     py     pz     px    dxy    dyz    dz2    dxz    dx2    tot
  1  0.478  0.007  0.000  0.018  0.000  0.000  0.000  0.000  0.000  0.502
 
band   2 # energy   14.47237397 # occ.  0.00000000
 
ion      s     py     pz     px    dxy    dyz    dz2    dxz    dx2    tot
  1  0.095  0.001  0.000  0.176  0.000  0.000  0.000  0.000  0.000  0.272
 
band   3 # energy   50.81664996 # occ.  0.00000000
 
ion      s     py     pz     px    dxy    dyz    dz2    dxz    dx2    tot
  1  0.164  0.357  0.000  0.033  0.000  0.000  0.000  0.000  0.000  0.553
 
band   4 # energy   64.64650915 # occ.  0.00000000
 
ion      s     py     pz     px    dxy    dyz    dz2    dxz    dx2    tot
  1  0.062  0.062  0.000  0.163  0.000  0.000  0.000  0.000  0.000  0.288
 

 k-point   34 :    0.47368421 0.15789474 0.00000000     weight = 0.00349905

band   1 # energy    1.83451532 # occ.  2.00000000
 
ion      s     py     pz     px    dxy    dyz    dz2    dxz    dx2    tot
  1  0.551  0.007  0.000  0.004  0.000  0.000  0.000  0.000  0.000  0.562
 
band   2 # energy   11.70382668 # occ.  0.00000000
 
ion      s     py     pz     px    dxy    dyz    dz2    dxz    dx2    tot
  1  0.020  0.000  0.000  0.184  0.000  0.000  0.000  0.000  0.000  0.204
 
band   3 # energy   52.89376596 # occ.  0.00000000
 