   1   1   1   0
  0.2957216E+01  0.1435361E-09  0.1435361E-09  0.1435361E-09  0.5000000E-15
  1.000000000000000E-004
  CAR 
 jump2                                   
    229.87170341    -25.19728317 2001     -9.24750060      1.00000000
    -25.197  0.0000E+00  0.0000E+00
    -25.070  0.0000E+00  0.0000E+00
    -24.942  0.0000E+00  0.0000E+00
    -24.815  0.0000E+00  0.0000E+00
    -24.687  0.0000E+00  0.0000E+00
    -24.560  0.0000E+00  0.0000E+00
    -24.432  0.0000E+00  0.0000E+00
    -24.305  0.0000E+00  0.0000E+00
    -24.177  0.0000E+00  0.0000E+00
    -24.049  0.0000E+00  0.0000E+00
    -23.922  0.0000E+00  0.0000E+00
    -23.794  0.0000E+00  0.0000E+00
    -23.667  0.0000E+00  0.0000E+00
    -23.539  0.0000E+00  0.0000E+00
    -23.412  0.0000E+00  0.0000E+00
    -23.284  0.0000E+00  0.0000E+00
    -23.157  0.0000E+00  0.0000E+00
    -23.029  0.0000E+00  0.0000E+00
    -22.902  0.0000E+00  0.0000E+00
    -22.774  0.0000E+00  0.0000E+00
    -22.647  0.0000E+00  0.0000E+00
    -22.519  0.0000E+00  0.0000E+00
    -22.392  0.0000E+00  0.0000E+00
    -22.264  0.0000E+00  0.0000E+00
    -22.136  0.0000E+00  0.0000E+00
    -22.009  0.0000E+00  0.0000E+00
    -21.881  0.0000E+00  0.0000E+00
    -21.754  0.0000E+00  0.0000E+00
    -21.626  0.0000E+00  0.0000E+00
    -21.499  0.0000E+00  0.0000E+00
    -21.371  0.0000E+00  0.0000E+00
    -21.244  0.0000E+00  0.0000E+00
    -21.116  0.0000E+00  0.0000E+00
    -20.989  0.0000E+00  0.0000E+00
    -20.861  0.0000E+00  0.0000E+00
    -20.734  0.0000E+00  0.0000E+00
    -20.606  0.0000E+00  0.0000E+00
    -20.479  0.0000E+00  0.0000E+00
    -20.351  0.0000E+00  0.0000E+00
    -20.223  0.0000E+00  0.0000E+00
    -20.096  0.0000E+00  0.0000E+00
    -19.968  0.0000E+00  0.0000E+00
    -19.841  0.0000E+00  0.0000E+00
    -19.713  0.0000E+00  0.0000E+00
    -19.586  0.0000E+00  0.0000E+00
    -19.458  0.0000E+00  0.0000E+00
    -19.331  0.0000E+00  0.0000E+00
    -19.203  0.0000E+00  0.0000E+00
    -19.076  0.0000E+00  0.0000E+00
    -18.948  0.0000E+00  0.0000E+00
    -18.821  0.0000E+00  0.0000E+00
    -18.693  0.0000E+00  0.0000E+00
    -18.565  0.0000E+00  0.0000E+00
    -18.438  0.0000E+00  0.0000E+00
    -18.310  0.0000E+00  0.0000E+00
    -18.183  0.0000E+00  0.0000E+00
    -18.055  0.0000E+00  0.0000E+00
    -17.928  0.0000E+00  0.0000E+00
    -17.800  0.0000E+00  0.0000E+00
    -17.673  0.0000E+00  0.0000E+00
    -17.545  0.0000E+00  0.0000E+00
    -17.418  0.0000E+00  0.0000E+00
    -17.290  0.0000E+00  0.0000E+00
    -17.163  0.0000E+00  0.0000E+00
    -17.035  0.0000E+00  0.0000E+00
    -16.908  0.0000E+00  0.0000E+00
    -16.780  0.0000E+00  0.0000E+00
    -16.652  0.0000E+00  0.0000E+00
    -16.525  0.0000E+00  0.0000E+00
    -16.397  0.0000E+00  0.0000E+00
    -16.270  0.0000E+00  0.0000E+00
    -16.142  0.0000E+00  0.0000E+00
    -16.015  0.0000E+00  0.0000E+00
    -15.887  0.0000E+00  0.0000E+00
    -15.760  0.0000E+00  0.0000E+00
    -15.632  0.0000E+00  0.0000E+00
    -15.505  0.0000E+00  0.0000E+00
    -15.377  0.0000E+00  0.0000E+00
    -15.250  0.0000E+00  0.0000E+00
    -15.122  0.0000E+00  0.0000E+00
    -14.995  0.0000E+00  0.0000E+00
    -14.867  0.0000E+00  0.0000E+00
    -14.739  0.0000E+00  0.0000E+00
    -14.612  0.0000E+00  0.0000E+00
    -14.484  0.0000E+00  0.0000E+00
    -14.357  0.0000E+00  0.0000E+00
    -14.229  0.0000E+00  0.0000E+00
    -14.102  0.7029E-12  0.8964E-13
    -13.974  0.6179E-07  0.7880E-08
    -13.847  0.2393E-03  0.3052E-04
    -13.719  0.4716E-01  0.6045E-02
    -13.592  0.6341E+00  0.8691E-01
    -13.464  0.9561E+00  0.2088E+00
    -13.337  0.5972E+00  0.2850E+00
    -13.209  0.3217E+00  0.3260E+00
    -13.082  0.4850E+00  0.3879E+00
    -12.954  0.1190E+00  0.4031E+00
    -12.826  0.3534E+00  0.4481E+00
    -12.699  0.3757E+00  0.4961E+00
    -12.571  0.3380E-01  0.5004E+00
    -12.444  0.1494E+00  0.5194E+00
    -12.316  0.4959E+00  0.5827E+00
    -12.189  0.1335E+00  0.5997E+00
    -12.061  0.3785E-02  0.6002E+00
    -11.934  0.1037E+00  0.6134E+00
    -11.806  0.4883E+00  0.6757E+00
    -11.679  0.1857E+00  0.6994E+00
    -11.551  0.4864E-02  0.7000E+00
    -11.424  0.2115E-02  0.7003E+00
    -11.296  0.1262E+00  0.7164E+00
    -11.168  0.4951E+00  0.7795E+00
    -11.041  0.1573E+00  0.7996E+00
    -10.913  0.3368E-02  0.8000E+00
    -10.786  0.2992E-04  0.8000E+00
    -10.658  0.1135E-01  0.8015E+00
    -10.531  0.2647E+00  0.8352E+00
    -10.403  0.4475E+00  0.8923E+00
    -10.276  0.6007E-01  0.8999E+00
    -10.148  0.4893E-03  0.9000E+00
    -10.021  0.1236E-05  0.9000E+00
     -9.893  0.1502E-02  0.9002E+00
     -9.766  0.1070E+00  0.9138E+00
     -9.638  0.4897E+00  0.9763E+00
     -9.511  0.1813E+00  0.9994E+00
     -9.383  0.4604E-02  0.1000E+01
     -9.255  0.6036E-05  0.1000E+01
     -9.128  0.4271E-06  0.1000E+01
     -9.000  0.8351E-03  0.1000E+01
     -8.873  0.7950E-01  0.1010E+01
     -8.745  0.4717E+00  0.1070E+01
     -8.618  0.2245E+00  0.1099E+01
     -8.490  0.7557E-02  0.1100E+01
     -8.363  0.1343E-04  0.1100E+01
     -8.235  0.1204E-08  0.1100E+01
     -8.108  0.2953E-05  0.1100E+01
     -7.980  0.2932E-02  0.1100E+01
     -7.853  0.1476E+00  0.1119E+01
     -7.725  0.4960E+00  0.1182E+01
     -7.598  0.1351E+00  0.1200E+01
     -7.470  0.2433E-02  0.1200E+01
     -7.342  0.2205E-05  0.1200E+01
     -7.215  0.8875E-10  0.1200E+01
     -7.087  0.6476E-07  0.1200E+01
     -6.960  0.2356E-03  0.1200E+01
     -6.832  0.4039E-01  0.1205E+01
     -6.705  0.4062E+00  0.1257E+01
     -6.577  0.3185E+00  0.1298E+01
     -6.450  0.1866E-01  0.1300E+01
     -6.322  0.6067E-04  0.1300E+01
     -6.195  0.9063E-08  0.1300E+01
     -6.067  0.1800E-11  0.1300E+01
     -5.940  0.1207E-06  0.1300E+01
     -5.812  0.3591E-03  0.1300E+01
     -5.685  0.5088E-01  0.1307E+01
     -5.557  0.4309E+00  0.1361E+01
     -5.429  0.2878E+00  0.1398E+01
     -5.302  0.1411E-01  0.1400E+01
     -5.174  0.3780E-04  0.1400E+01
     -5.047  0.4614E-08  0.1400E+01
     -4.919  0.2738E-13  0.1400E+01
     -4.792  0.1081E-08  0.1400E+01
     -4.664  0.1350E-04  0.1400E+01
     -4.537  0.7582E-02  0.1401E+01
     -4.409  0.2248E+00  0.1430E+01
     -4.282  0.4715E+00  0.1490E+01
     -4.154  0.7933E-01  0.1500E+01
     -4.027  0.8316E-03  0.1500E+01
     -3.899  0.4240E-06  0.1500E+01
     -3.771  0.9382E-11  0.1500E+01
     -3.644  0.1332E-12  0.1500E+01
     -3.516  0.1725E-07  0.1500E+01
     -3.389  0.9495E-04  0.1500E+01
     -3.261  0.2419E-01  0.1503E+01
     -3.134  0.3480E+00  0.1547E+01
     -3.006  0.3797E+00  0.1596E+01
     -2.879  0.3191E-01  0.1600E+01
     -2.751  0.1544E-03  0.1600E+01
     -2.624  0.3492E-07  0.1600E+01
     -2.496  0.3370E-12  0.1600E+01
     -2.369  0.9501E-11  0.1600E+01
     -2.241  0.4280E-06  0.1600E+01
     -2.114  0.8368E-03  0.1600E+01
     -1.986  0.7958E-01  0.1610E+01
     -1.858  0.4717E+00  0.1670E+01
     -1.731  0.2244E+00  0.1699E+01
     -1.603  0.7544E-02  0.1700E+01
     -1.476  0.1340E-04  0.1700E+01
     -1.348  0.1069E-08  0.1700E+01
     -1.221  0.7860E-10  0.1700E+01
     -1.093  0.2031E-05  0.1700E+01
     -0.966  0.2308E-02  0.1700E+01
     -0.838  0.1318E+00  0.1717E+01
     -0.711  0.4958E+00  0.1780E+01
     -0.583  0.1511E+00  0.1800E+01
     -0.456  0.3087E-02  0.1800E+01
     -0.328  0.3204E-05  0.1800E+01
     -0.201  0.1290E-04  0.1800E+01
     -0.073  0.7371E-02  0.1801E+01
      0.055  0.2222E+00  0.1829E+01
      0.182  0.4730E+00  0.1890E+01
      0.310  0.1137E+00  0.1904E+01
      0.437  0.3843E+00  0.1953E+01
      0.565  0.3441E+00  0.1997E+01
      0.692  0.2337E-01  0.2000E+01
      0.820  0.8943E-04  0.2000E+01
      0.947  0.1583E-07  0.2000E+01
      1.075  0.1190E-12  0.2000E+01
      1.202  0.0000E+00  0.2000E+01
      1.330  0.0000E+00  0.2000E+01
      1.457  0.0000E+00  0.2000E+01
      1.585  0.0000E+00  0.2000E+01
      1.712  0.0000E+00  0.2000E+01
      1.840  0.0000E+00  0.2000E+01
      1.968  0.0000E+00  0.2000E+01
      2.095  0.0000E+00  0.2000E+01
      2.223  0.0000E+00  0.2000E+01
      2.350  0.0000E+00  0.2000E+01
      2.478  0.0000E+00  0.2000E+01
      2.605  0.0000E+00  0.2000E+01
      2.733  0.0000E+00  0.2000E+01
      2.860  0.0000E+00  0.2000E+01
      2.988  0.0000E+00  0.2000E+01
      3.115  0.0000E+00  0.2000E+01
      3.243  0.0000E+00  0.2000E+01
      3.370  0.0000E+00  0.2000E+01
      3.498  0.0000E+00  0.2000E+01
      3.626  0.0000E+00  0.2000E+01
      3.753  0.0000E+00  0.2000E+01
      3.881  0.0000E+00  0.2000E+01
      4.008  0.0000E+00  0.2000E+01
      4.136  0.0000E+00  0.2000E+01
      4.263  0.0000E+00  0.2000E+01
      4.391  0.0000E+00  0.2000E+01
      4.518  0.0000E+00  0.2000E+01
      4.646  0.0000E+00  0.2000E+01
      4.773  0.0000E+00  0.2000E+01
      4.901  0.0000E+00  0.2000E+01
      5.028  0.0000E+00  0.2000E+01
      5.156  0.0000E+00  0.2000E+01
      5.283  0.0000E+00  0.2000E+01
      5.411  0.0000E+00  0.2000E+01
      5.539  0.0000E+00  0.2000E+01
      5.666  0.0000E+00  0.2000E+01
      5.794  0.0000E+00  0.2000E+01
      5.921  0.0000E+00  0.2000E+01
      6.049  0.0000E+00  0.2000E+01
      6.176  0.0000E+00  0.2000E+01
      6.304  0.0000E+00  0.2000E+01
      6.431  0.0000E+00  0.2000E+01
      6.559  0.0000E+00  0.2000E+01
      6.686  0.0000E+00  0.2000E+01
      6.814  0.0000E+00  0.2000E+01
      6.941  0.0000E+00  0.2000E+01
      7.069  0.0000E+00  0.2000E+01
      7.196  0.0000E+00  0.2000E+01
      7.324  0.0000E+00  0.2000E+01
      7.452  0.0000E+00  0.2000E+01
      7.579  0.0000E+00  0.2000E+01
      7.707  0.0000E+00  0.2000E+01
      7.834  0.0000E+00  0.2000E+01
      7.962  0.0000E+00  0.2000E+01
      8.089  0.0000E+00  0.2000E+01
      8.217  0.0000E+00  0.2000E+01
      8.344  0.0000E+00  0.2000E+01
      8.472  0.0000E+00  0.2000E+01
      8.599  0.0000E+00  0.2000E+01
      8.727  0.0000E+00  0.2000E+01
      8.854  0.7399E-15  0.2000E+01
      8.982  0.3135E-09  0.2000E+01
      9.109  0.5551E-05  0.2000E+01
      9.237  0.4368E-02  0.2001E+01
      9.365  0.1771E+00  0.2023E+01
      9.492  0.4910E+00  0.2086E+01
      9.620  0.1105E+00  0.2100E+01
      9.747  0.5294E-01  0.2107E+01
      9.875  0.4319E+00  0.2162E+01
     10.002  0.2865E+00  0.2198E+01
     10.130  0.1395E-01  0.2200E+01
     10.257  0.3706E-04  0.2200E+01
     10.385  0.4487E-08  0.2200E+01
     10.512  0.5398E-12  0.2200E+01
     10.640  0.4828E-07  0.2200E+01
     10.767  0.1928E-03  0.2200E+01
     10.895  0.3613E-01  0.2205E+01
     11.023  0.3938E+00  0.2255E+01
     11.150  0.3327E+00  0.2297E+01
     11.278  0.2115E-01  0.2300E+01
     11.405  0.7527E-04  0.2300E+01
     11.533  0.1235E-07  0.2300E+01
     11.660  0.8601E-13  0.2300E+01
     11.788  0.0000E+00  0.2300E+01
     11.915  0.0000E+00  0.2300E+01
     12.043  0.0000E+00  0.2300E+01
     12.170  0.3092E-11  0.2300E+01
     12.298  0.1854E-06  0.2300E+01
     12.425  0.4794E-03  0.2300E+01
     12.553  0.5942E-01  0.2308E+01
     12.680  0.4464E+00  0.2365E+01
     12.808  0.2662E+00  0.2399E+01
     12.936  0.1152E-01  0.2400E+01
     13.063  0.2690E-04  0.2400E+01
     13.191  0.2849E-08  0.2400E+01
     13.318  0.1271E-13  0.2400E+01
     13.446  0.0000E+00  0.2400E+01
     13.573  0.0000E+00  0.2400E+01
     13.701  0.0000E+00  0.2400E+01
     13.828  0.0000E+00  0.2400E+01
     13.956  0.0000E+00  0.2400E+01
     14.083  0.1241E-11  0.2400E+01
     14.211  0.9346E-07  0.2400E+01
     14.338  0.3022E-03  0.2400E+01
     14.466  0.4632E-01  0.2406E+01
     14.593  0.4211E+00  0.2460E+01
     14.721  0.3005E+00  0.2498E+01
     14.849  0.1586E-01  0.2500E+01
     14.976  0.4603E-04  0.2500E+01
     15.104  0.6108E-08  0.2500E+01
     15.231  0.3430E-13  0.2500E+01
     15.359  0.0000E+00  0.2500E+01
     15.486  0.0000E+00  0.2500E+01
     15.614  0.0000E+00  0.2500E+01
     15.741  0.0000E+00  0.2500E+01
     15.869  0.0000E+00  0.2500E+01
     15.996  0.0000E+00  0.2500E+01
     16.124  0.8705E-16  0.2500E+01
     16.251  0.6419E-10  0.2500E+01
     16.379  0.1751E-05  0.2500E+01
     16.506  0.2098E-02  0.2500E+01
     16.634  0.1259E+00  0.2516E+01
     16.762  0.4950E+00  0.2579E+01
     16.889  0.1577E+00  0.2600E+01
     17.017  0.3383E-02  0.2600E+01
     17.144  0.3700E-05  0.2600E+01
     17.272  0.1791E-09  0.2600E+01
     17.399  0.3482E-15  0.2600E+01
     17.527  0.0000E+00  0.2600E+01
     17.654  0.0000E+00  0.2600E+01
     17.782  0.0000E+00  0.2600E+01
     17.909  0.0000E+00  0.2600E+01
     18.037  0.0000E+00  0.2600E+01
     18.164  0.0000E+00  0.2600E+01
     18.292  0.0000E+00  0.2600E+01
     18.420  0.3047E-15  0.2600E+01
     18.547  0.1494E-09  0.2600E+01
     18.675  0.3243E-05  0.2600E+01
     18.802  0.3112E-02  0.2600E+01
     18.930  0.1517E+00  0.2620E+01
     19.057  0.4957E+00  0.2683E+01
     19.185  0.1313E+00  0.2700E+01
     19.312  0.2289E-02  0.2700E+01
     19.440  0.2005E-05  0.2700E+01
     19.567  0.7723E-10  0.2700E+01
     19.695  0.1741E-15  0.2700E+01
     19.822  0.0000E+00  0.2700E+01
     19.950  0.0000E+00  0.2700E+01
     20.077  0.0000E+00  0.2700E+01
     20.205  0.0000E+00  0.2700E+01
     20.333  0.0000E+00  0.2700E+01
     20.460  0.0000E+00  0.2700E+01
     20.588  0.0000E+00  0.2700E+01
     20.715  0.0000E+00  0.2700E+01
     20.843  0.1306E-15  0.2700E+01
     20.970  0.7875E-10  0.2700E+01
     21.098  0.2034E-05  0.2700E+01
     21.225  0.2310E-02  0.2700E+01
     21.353  0.1318E+00  0.2717E+01
     21.480  0.4958E+00  0.2780E+01
     21.608  0.1511E+00  0.2800E+01
     21.735  0.3084E-02  0.2800E+01
     21.863  0.3198E-05  0.2800E+01
     21.990  0.1465E-09  0.2800E+01
     22.118  0.2612E-15  0.2800E+01
     22.246  0.0000E+00  0.2800E+01
     22.373  0.0000E+00  0.2800E+01
     22.501  0.0000E+00  0.2800E+01
     22.628  0.0000E+00  0.2800E+01
     22.756  0.0000E+00  0.2800E+01
     22.883  0.0000E+00  0.2800E+01
     23.011  0.0000E+00  0.2800E+01
     23.138  0.0000E+00  0.2800E+01
     23.266  0.0000E+00  0.2800E+01
     23.393  0.5223E-15  0.2800E+01
     23.521  0.2342E-09  0.2800E+01
     23.648  0.4495E-05  0.2800E+01
     23.776  0.3825E-02  0.2800E+01
     23.903  0.1668E+00  0.2822E+01
     24.031  0.4934E+00  0.2885E+01
     24.159  0.1182E+00  0.2900E+01
     24.286  0.1841E-02  0.2900E+01
     24.414  0.1430E-05  0.2900E+01
     24.541  0.4868E-10  0.2900E+01
     24.669  0.8705E-16  0.2900E+01
     24.796  0.0000E+00  0.2900E+01
     24.924  0.0000E+00  0.2900E+01
     25.051  0.0000E+00  0.2900E+01
     25.179  0.0000E+00  0.2900E+01
     25.306  0.0000E+00  0.2900E+01
     25.434  0.0000E+00  0.2900E+01
     25.561  0.0000E+00  0.2900E+01
     25.689  0.0000E+00  0.2900E+01
     25.817  0.0000E+00  0.2900E+01
     25.944  0.0000E+00  0.2900E+01
     26.072  0.2024E-13  0.2900E+01
     26.199  0.4076E-08  0.2900E+01
     26.327  0.3464E-04  0.2900E+01
     26.454  0.1340E-01  0.2902E+01
     26.582  0.2822E+00  0.2938E+01
     26.709  0.4351E+00  0.2993E+01
     26.837  0.5299E-01  0.3000E+01
     26.964  0.3872E-03  0.3000E+01
     27.092  0.1349E-06  0.3000E+01
     27.219  0.2022E-11  0.3000E+01
     27.347  0.0000E+00  0.3000E+01
     27.474  0.0000E+00  0.3000E+01
     27.602  0.0000E+00  0.3000E+01
     27.730  0.0000E+00  0.3000E+01
     27.857  0.0000E+00  0.3000E+01
     27.985  0.0000E+00  0.3000E+01
     28.112  0.0000E+00  0.3000E+01
     28.240  0.0000E+00  0.3000E+01
     28.367  0.0000E+00  0.3000E+01
     28.495  0.0000E+00  0.3000E+01
     28.622  0.0000E+00  0.3000E+01
     28.750  0.0000E+00  0.3000E+01
     28.877  0.1401E-10  0.3000E+01
     29.005  0.5709E-06  0.3000E+01
     29.132  0.1012E-02  0.3000E+01
     29.260  0.8771E-01  0.3011E+01
     29.387  0.4787E+00  0.3072E+01
     29.515  0.2102E+00  0.3099E+01
     29.643  0.6465E-02  0.3100E+01
     29.770  0.1042E-04  0.3100E+01
     29.898  0.7524E-09  0.3100E+01
     30.025  0.2263E-14  0.3100E+01
     30.153  0.0000E+00  0.3100E+01
     30.280  0.0000E+00  0.3100E+01
     30.408  0.0000E+00  0.3100E+01
     30.535  0.0000E+00  0.3100E+01
     30.663  0.0000E+00  0.3100E+01
     30.790  0.0000E+00  0.3100E+01
     30.918  0.0000E+00  0.3100E+01
     31.045  0.0000E+00  0.3100E+01
     31.173  0.0000E+00  0.3100E+01
     31.300  0.0000E+00  0.3100E+01
     31.428  0.0000E+00  0.3100E+01
     31.556  0.0000E+00  0.3100E+01
     31.683  0.1773E-11  0.3100E+01
     31.811  0.1222E-06  0.3100E+01
     31.938  0.3623E-03  0.3100E+01
     32.066  0.5112E-01  0.3107E+01
     32.193  0.4314E+00  0.3162E+01
     32.321  0.2871E+00  0.3198E+01
     32.448  0.1403E-01  0.3200E+01
     32.576  0.3742E-04  0.3200E+01
     32.703  0.4548E-08  0.3200E+01
     32.831  0.2333E-13  0.3200E+01
     32.958  0.0000E+00  0.3200E+01
     33.086  0.0000E+00  0.3200E+01
     33.214  0.0000E+00  0.3200E+01
     33.341  0.0000E+00  0.3200E+01
     33.469  0.0000E+00  0.3200E+01
     33.596  0.0000E+00  0.3200E+01
     33.724  0.0000E+00  0.3200E+01
     33.851  0.0000E+00  0.3200E+01
     33.979  0.0000E+00  0.3200E+01
     34.106  0.0000E+00  0.3200E+01
     34.234  0.0000E+00  0.3200E+01
     34.361  0.0000E+00  0.3200E+01
     34.489  0.8705E-16  0.3200E+01
     34.616  0.5808E-10  0.3200E+01
     34.744  0.1627E-05  0.3200E+01
     34.871  0.2002E-02  0.3200E+01
     34.999  0.1231E+00  0.3216E+01
     35.127  0.4945E+00  0.3279E+01
     35.254  0.1610E+00  0.3300E+01
     35.382  0.3538E-02  0.3300E+01
     35.509  0.3971E-05  0.3300E+01
     35.637  0.1974E-09  0.3300E+01
     35.764  0.3482E-15  0.3300E+01
     35.892  0.0000E+00  0.3300E+01
     36.019  0.0000E+00  0.3300E+01
     36.147  0.0000E+00  0.3300E+01
     36.274  0.0000E+00  0.3300E+01
     36.402  0.0000E+00  0.3300E+01
     36.529  0.0000E+00  0.3300E+01
     36.657  0.0000E+00  0.3300E+01
     36.784  0.0000E+00  0.3300E+01
     36.912  0.0000E+00  0.3300E+01
     37.040  0.0000E+00  0.3300E+01
     37.167  0.0000E+00  0.3300E+01
     37.295  0.0000E+00  0.3300E+01
     37.422  0.4353E-16  0.3300E+01
     37.550  0.2307E-10  0.3300E+01
     37.677  0.8255E-06  0.3300E+01
     37.805  0.1288E-02  0.3300E+01
     37.932  0.9909E-01  0.3313E+01
     38.060  0.4860E+00  0.3375E+01
     38.187  0.1924E+00  0.3399E+01
     38.315  0.5268E-02  0.3400E+01
     38.442  0.7492E-05  0.3400E+01
     38.570  0.4752E-09  0.3400E+01
     38.697  0.1219E-14  0.3400E+01
     38.825  0.0000E+00  0.3400E+01
     38.953  0.0000E+00  0.3400E+01
     39.080  0.0000E+00  0.3400E+01
     39.208  0.0000E+00  0.3400E+01
     39.335  0.0000E+00  0.3400E+01
     39.463  0.0000E+00  0.3400E+01
     39.590  0.0000E+00  0.3400E+01
     39.718  0.0000E+00  0.3400E+01
     39.845  0.0000E+00  0.3400E+01
     39.973  0.0000E+00  0.3400E+01
     40.100  0.0000E+00  0.3400E+01
     40.228  0.0000E+00  0.3400E+01
     40.355  0.0000E+00  0.3400E+01
     40.483  0.3408E-13  0.3400E+01
     40.611  0.6084E-08  0.3400E+01
     40.738  0.4590E-04  0.3400E+01
     40.866  0.1584E-01  0.3402E+01
     40.993  0.3003E+00  0.3440E+01
     41.121  0.4212E+00  0.3494E+01
     41.248  0.4638E-01  0.3500E+01
     41.376  0.3029E-03  0.3500E+01
     41.503  0.9380E-07  0.3500E+01
     41.631  0.1247E-11  0.3500E+01
     41.758  0.0000E+00  0.3500E+01
     41.886  0.0000E+00  0.3500E+01
     42.013  0.0000E+00  0.3500E+01
     42.141  0.0000E+00  0.3500E+01
     42.268  0.0000E+00  0.3500E+01
     42.396  0.0000E+00  0.3500E+01
     42.524  0.0000E+00  0.3500E+01
     42.651  0.0000E+00  0.3500E+01
     42.779  0.0000E+00  0.3500E+01
     42.906  0.0000E+00  0.3500E+01
     43.034  0.0000E+00  0.3500E+01
     43.161  0.0000E+00  0.3500E+01
     43.289  0.4353E-16  0.3500E+01
     43.416  0.4205E-10  0.3500E+01
     43.544  0.1284E-05  0.3500E+01
     43.671  0.1717E-02  0.3500E+01
     43.799  0.1142E+00  0.3515E+01
     43.926  0.4923E+00  0.3578E+01
     44.054  0.1717E+00  0.3599E+01
     44.181  0.4079E-02  0.3600E+01
     44.309  0.4977E-05  0.3600E+01
     44.437  0.2696E-09  0.3600E+01
     44.564  0.6094E-15  0.3600E+01
     44.692  0.0000E+00  0.3600E+01
     44.819  0.0000E+00  0.3600E+01
     44.947  0.0000E+00  0.3600E+01
     45.074  0.0000E+00  0.3600E+01
     45.202  0.0000E+00  0.3600E+01
     45.329  0.0000E+00  0.3600E+01
     45.457  0.0000E+00  0.3600E+01
     45.584  0.0000E+00  0.3600E+01
     45.712  0.0000E+00  0.3600E+01
     45.839  0.0000E+00  0.3600E+01
     45.967  0.1263E-12  0.3600E+01
     46.094  0.1656E-07  0.3600E+01
     46.222  0.9229E-04  0.3600E+01
     46.350  0.2380E-01  0.3603E+01
     46.477  0.3462E+00  0.3647E+01
     46.605  0.3815E+00  0.3696E+01
     46.732  0.3240E-01  0.3700E+01
     46.860  0.1587E-03  0.3700E+01
     46.987  0.3635E-07  0.3700E+01
     47.115  0.3552E-12  0.3700E+01
     47.242  0.0000E+00  0.3700E+01
     47.370  0.0000E+00  0.3700E+01
     47.497  0.0000E+00  0.3700E+01
     47.625  0.0000E+00  0.3700E+01
     47.752  0.0000E+00  0.3700E+01
     47.880  0.0000E+00  0.3700E+01
     48.008  0.2120E-13  0.3700E+01
     48.135  0.4227E-08  0.3700E+01
     48.263  0.3553E-04  0.3700E+01
     48.390  0.1361E-01  0.3702E+01
     48.518  0.2838E+00  0.3738E+01
     48.645  0.4339E+00  0.3793E+01
     48.773  0.5236E-01  0.3800E+01
     48.900  0.3788E-03  0.3800E+01
     49.028  0.1306E-06  0.3800E+01
     49.155  0.1936E-11  0.3800E+01
     49.283  0.4262E-11  0.3800E+01
     49.410  0.2357E-06  0.3800E+01
     49.538  0.5629E-03  0.3800E+01
     49.665  0.6470E-01  0.3808E+01
     49.793  0.4544E+00  0.3866E+01
     49.921  0.2548E+00  0.3899E+01
     50.048  0.7714E-01  0.3909E+01
     50.176  0.4574E+00  0.3967E+01
     50.303  0.2494E+00  0.3999E+01
     50.431  0.9766E-02  0.4000E+01
     50.558  0.2046E-04  0.4000E+01
     50.686  0.1937E-08  0.4000E+01
     50.813  0.7661E-14  0.4000E+01
     50.941  0.0000E+00  0.4000E+01
     51.068  0.0000E+00  0.4000E+01
     51.196  0.0000E+00  0.4000E+01
     51.323  0.0000E+00  0.4000E+01
     51.451  0.0000E+00  0.4000E+01
     51.578  0.0000E+00  0.4000E+01
     51.706  0.0000E+00  0.4000E+01
     51.834  0.0000E+00  0.4000E+01
     51.961  0.0000E+00  0.4000E+01
     52.089  0.0000E+00  0.4000E+01
     52.216  0.0000E+00  0.4000E+01
     52.344  0.0000E+00  0.4000E+01
     52.471  0.0000E+00  0.4000E+01
     52.599  0.0000E+00  0.4000E+01
     52.726  0.0000E+00  0.4000E+01
     52.854  0.0000E+00  0.4000E+01
     52.981  0.0000E+00  0.4000E+01
     53.109  0.0000E+00  0.4000E+01
     53.236  0.0000E+00  0.4000E+01
     53.364  0.0000E+00  0.4000E+01
     53.491  0.0000E+00  0.4000E+01
     53.619  0.0000E+00  0.4000E+01
     53.747  0.0000E+00  0.4000E+01
     53.874  0.0000E+00  0.4000E+01
     54.002  0.0000E+00  0.4000E+01
     54.129  0.0000E+00  0.4000E+01
     54.257  0.0000E+00  0.4000E+01
     54.384  0.0000E+00  0.4000E+01
     54.512  0.0000E+00  0.4000E+01
     54.639  0.0000E+00  0.4000E+01
     54.767  0.0000E+00  0.4000E+01
     54.894  0.0000E+00  0.4000E+01
     55.022  0.0000E+00  0.4000E+01
     55.149  0.0000E+00  0.4000E+01
     55.277  0.0000E+00  0.4000E+01
     55.405  0.0000E+00  0.4000E+01
     55.532  0.0000E+00  0.4000E+01
     55.660  0.0000E+00  0.4000E+01
     55.787  0.0000E+00  0.4000E+01
     55.915  0.1454E-12  0.4000E+01
     56.042  0.1863E-07  0.4000E+01
     56.170  0.1039E-03  0.4000E+01
     56.297  0.2873E-01  0.4004E+01
     56.425  0.5197E+00  0.4070E+01
     56.552  0.8715E+00  0.4181E+01
     56.680  0.2929E+00  0.4218E+01
     56.807  0.9166E+00  0.4335E+01
     56.935  0.4870E+00  0.4397E+01
     57.062  0.3008E-01  0.4401E+01
     57.190  0.2550E+00  0.4434E+01
     57.318  0.4539E+00  0.4492E+01
     57.445  0.6434E-01  0.4500E+01
     57.573  0.1331E-02  0.4500E+01
     57.700  0.1059E+00  0.4514E+01
     57.828  0.8701E+00  0.4625E+01
     57.955  0.5646E+00  0.4697E+01
     58.083  0.2683E-01  0.4700E+01
     58.210  0.8241E-04  0.4700E+01
     58.338  0.7401E-02  0.4701E+01
     58.465  0.2226E+00  0.4729E+01
     58.593  0.4727E+00  0.4790E+01
     58.720  0.8057E-01  0.4800E+01
     58.848  0.8571E-03  0.4800E+01
     58.975  0.2545E-05  0.4800E+01
     59.103  0.2359E-02  0.4800E+01
     59.231  0.1332E+00  0.4817E+01
     59.358  0.4959E+00  0.4881E+01
     59.486  0.1515E+00  0.4900E+01
     59.613  0.1212E+00  0.4915E+01
     59.741  0.4934E+00  0.4978E+01
     59.868  0.1669E+00  0.5000E+01
     59.996  0.7721E-02  0.5000E+01
     60.123  0.1681E+00  0.5022E+01
     60.251  0.4932E+00  0.5085E+01
     60.378  0.1171E+00  0.5100E+01
     60.506  0.1807E-02  0.5100E+01
     60.633  0.1389E-05  0.5100E+01
     60.761  0.8824E-07  0.5100E+01
     60.888  0.2905E-03  0.5100E+01
     61.016  0.4533E-01  0.5106E+01
     61.144  0.4188E+00  0.5159E+01
     61.271  0.3034E+00  0.5198E+01
     61.399  0.1894E-01  0.5200E+01
     61.526  0.2228E+00  0.5229E+01
     61.654  0.1336E+01  0.5399E+01
     61.781  0.1029E+01  0.5530E+01
     61.909  0.5071E+00  0.5595E+01
     62.036  0.5593E+00  0.5666E+01
     62.164  0.9102E+00  0.5782E+01
     62.291  0.1741E+00  0.5805E+01
     62.419  0.4000E+00  0.5856E+01
     62.546  0.3273E+00  0.5897E+01
     62.674  0.2354E-01  0.5900E+01
     62.802  0.1578E+00  0.5921E+01
     62.929  0.5039E+00  0.5985E+01
     63.057  0.3658E+00  0.6031E+01
     63.184  0.4658E+00  0.6091E+01
     63.312  0.1371E+00  0.6108E+01
     63.439  0.4701E+00  0.6168E+01
     63.567  0.5371E+00  0.6237E+01
     63.694  0.4432E+00  0.6293E+01
     63.822  0.5250E-01  0.6300E+01
     63.949  0.8365E-01  0.6311E+01
     64.077  0.8166E+00  0.6415E+01
     64.204  0.6310E+00  0.6495E+01
     64.332  0.3671E-01  0.6500E+01
     64.459  0.1203E-03  0.6500E+01
     64.587  0.6891E-03  0.6500E+01
     64.715  0.7197E-01  0.6509E+01
     64.842  0.4724E+00  0.6570E+01
     64.970  0.4766E+00  0.6630E+01
     65.097  0.4732E+00  0.6691E+01
     65.225  0.7263E-01  0.6700E+01
     65.352  0.7069E-03  0.6700E+01
     65.480  0.4441E-02  0.6701E+01
     65.607  0.1895E+00  0.6725E+01
     65.735  0.7575E+00  0.6821E+01
     65.862  0.5801E+00  0.6895E+01
     65.990  0.4105E+00  0.6948E+01
     66.117  0.3826E+00  0.6996E+01
     66.245  0.2021E+00  0.7022E+01
     66.372  0.5264E+00  0.7089E+01
     66.500  0.5494E+00  0.7159E+01
     66.628  0.7733E+00  0.7258E+01
     66.755  0.3140E+00  0.7298E+01
     66.883  0.1461E-01  0.7300E+01
     67.010  0.3967E-04  0.7300E+01
     67.138  0.4939E-08  0.7300E+01
     67.265  0.2594E-13  0.7300E+01
     67.393  0.0000E+00  0.7300E+01
     67.520  0.0000E+00  0.7300E+01
     67.648  0.0000E+00  0.7300E+01
     67.775  0.0000E+00  0.7300E+01
     67.903  0.3047E-15  0.7300E+01
     68.030  0.1600E-09  0.7300E+01
     68.158  0.3409E-05  0.7300E+01
     68.286  0.3212E-02  0.7300E+01
     68.413  0.1539E+00  0.7320E+01
     68.541  0.4955E+00  0.7383E+01
     68.668  0.1292E+00  0.7400E+01
     68.796  0.2215E-02  0.7400E+01
     68.923  0.1905E-05  0.7400E+01
     69.051  0.7203E-10  0.7400E+01
     69.178  0.3679E-09  0.7400E+01
     69.306  0.6230E-05  0.7400E+01
     69.433  0.4696E-02  0.7401E+01
     69.561  0.1829E+00  0.7424E+01
     69.688  0.4893E+00  0.7486E+01
     69.816  0.1058E+00  0.7500E+01
     69.943  0.1469E-02  0.7500E+01
     70.071  0.1009E-05  0.7500E+01
     70.199  0.3032E-10  0.7500E+01
     70.326  0.1101E-08  0.7500E+01
     70.454  0.1368E-04  0.7500E+01
     70.581  0.7643E-02  0.7501E+01
     70.709  0.2256E+00  0.7530E+01
     70.836  0.4711E+00  0.7590E+01
     70.964  0.7891E-01  0.7600E+01
     71.091  0.8232E-03  0.7600E+01
     71.219  0.4176E-06  0.7600E+01
     71.346  0.9190E-11  0.7600E+01
     71.474  0.1051E-12  0.7600E+01
     71.601  0.1440E-07  0.7600E+01
     71.729  0.8375E-04  0.7600E+01
     71.856  0.2250E-01  0.7603E+01
     71.984  0.3398E+00  0.7646E+01
     72.112  0.3874E+00  0.7696E+01
     72.239  0.3415E-01  0.7700E+01
     72.367  0.1742E-03  0.7700E+01
     72.494  0.4164E-07  0.7700E+01
     72.622  0.4253E-12  0.7700E+01
     72.749  0.4832E-10  0.7700E+01
     72.877  0.1422E-05  0.7700E+01
     73.004  0.1840E-02  0.7700E+01
     73.132  0.1224E+00  0.7716E+01
     73.259  0.6711E+00  0.7801E+01
     73.387  0.6578E+00  0.7885E+01
     73.514  0.1135E+00  0.7900E+01
     73.642  0.1584E-02  0.7900E+01
     73.769  0.1129E-05  0.7900E+01
     73.897  0.3530E-10  0.7900E+01
     74.025  0.0000E+00  0.7900E+01
     74.152  0.4353E-16  0.7900E+01
     74.280  0.2906E-10  0.7900E+01
     74.407  0.9827E-06  0.7900E+01
     74.535  0.1477E-02  0.7900E+01
     74.662  0.1189E+00  0.7915E+01
     74.790  0.7773E+00  0.8014E+01
     74.917  0.6147E+00  0.8093E+01
     75.045  0.5538E-01  0.8100E+01
     75.172  0.3619E-03  0.8100E+01
     75.300  0.1192E-06  0.8100E+01
     75.427  0.4473E-11  0.8100E+01
     75.555  0.1705E-06  0.8100E+01
     75.683  0.4532E-03  0.8100E+01
     75.810  0.5766E-01  0.8107E+01
     75.938  0.4435E+00  0.8164E+01
     76.065  0.2704E+00  0.8198E+01
     76.193  0.1199E-01  0.8200E+01
     76.320  0.2877E-04  0.8200E+01
     76.448  0.3133E-08  0.8200E+01
     76.575  0.1436E-13  0.8200E+01
     76.703  0.5799E-11  0.8200E+01
     76.830  0.2965E-06  0.8200E+01
     76.958  0.6559E-03  0.8200E+01
     77.085  0.7012E-01  0.8209E+01
     77.213  0.4615E+00  0.8268E+01
     77.340  0.2428E+00  0.8299E+01
     77.468  0.4387E-01  0.8304E+01
     77.596  0.3894E+00  0.8354E+01
     77.723  0.3505E+00  0.8399E+01
     77.851  0.2997E+00  0.8437E+01
     77.978  0.4385E+00  0.8493E+01
     78.106  0.5475E-01  0.8500E+01
     78.233  0.4115E-03  0.8500E+01
     78.361  0.1477E-06  0.8500E+01
     78.488  0.2282E-11  0.8500E+01
     78.616  0.0000E+00  0.8500E+01
     78.743  0.0000E+00  0.8500E+01
     78.871  0.0000E+00  0.8500E+01
     78.998  0.0000E+00  0.8500E+01
     79.126  0.0000E+00  0.8500E+01
     79.253  0.0000E+00  0.8500E+01
     79.381  0.0000E+00  0.8500E+01
     79.509  0.0000E+00  0.8500E+01
     79.636  0.0000E+00  0.8500E+01
     79.764  0.0000E+00  0.8500E+01
     79.891  0.0000E+00  0.8500E+01
     80.019  0.4353E-16  0.8500E+01