<?xml version="1.0" encoding="ISO-8859-1"?>
<modeling>
 <generator>
  <i name="program" type="string">vasp </i>
  <i name="version" type="string">5.2.12  </i>
  <i name="subversion" type="string">11Nov11 complex                                                      parallel </i>
  <i name="platform" type="string">LinuxIFC </i>
  <i name="date" type="string">2018 01 16 </i>
  <i name="time" type="string">21:15:53 </i>
 </generator>
 <incar>
  <i type="string" name="SYSTEM"> jump2</i>
  <i type="int" name="ISTART">     1</i>
  <i type="string" name="PREC">normal</i>
  <i type="string" name="ALGO"> veryfast</i>
  <i type="logical" name="ADDGRID"> T  </i>
  <i name="AMIN">      0.01000000</i>
  <i type="int" name="ICHARG">    11</i>
  <i type="int" name="NELM">   100</i>
  <i type="int" name="IBRION">    -1</i>
  <i name="EDIFF">      0.00010000</i>
  <i name="EDIFFG">     -0.01000000</i>
  <i type="int" name="NSW">     0</i>
  <i type="int" name="ISIF">     2</i>
  <i name="ENCUT">    325.00000000</i>
  <i type="int" name="NBANDS">     8</i>
  <i type="int" name="NEDOS">  2001</i>
  <i type="string" name="LREAL"> Auto</i>
  <i type="logical" name="LPLANE"> T  </i>
  <i type="int" name="ISMEAR">     0</i>
  <i name="SIGMA">      0.10000000</i>
  <i type="logical" name="LWAVE"> T  </i>
  <i type="logical" name="LCHARG"> F  </i>
  <i type="logical" name="LVTOT"> F  </i>
  <i type="logical" name="LVHAR"> F  </i>
  <i type="logical" name="LORBIT"> F  </i>
  <i type="int" name="NELM">   100</i>
 </incar>
 <kpoints>
  <generation param="listgenerated">
   <i name="divisions" type="int">      20 </i>
   <v>       0.00000000       0.00000000       0.00000000 </v>
   <v>       0.50000000       0.00000000       0.00000000 </v>
  </generation>
  <varray name="kpointlist" >
   <v>       0.00000000       0.00000000       0.00000000 </v>
   <v>       0.02631579       0.00000000       0.00000000 </v>
   <v>       0.05263158       0.00000000       0.00000000 </v>
   <v>       0.07894737       0.00000000       0.00000000 </v>
   <v>       0.10526316       0.00000000       0.00000000 </v>
   <v>       0.13157895       0.00000000       0.00000000 </v>
   <v>       0.15789474       0.00000000       0.00000000 </v>
   <v>       0.18421053       0.00000000       0.00000000 </v>
   <v>       0.21052632       0.00000000       0.00000000 </v>
   <v>       0.23684211       0.00000000       0.00000000 </v>
   <v>       0.26315789       0.00000000       0.00000000 </v>
   <v>       0.28947368       0.00000000       0.00000000 </v>
   <v>       0.31578947       0.00000000       0.00000000 </v>
   <v>       0.34210526       0.00000000       0.00000000 </v>
   <v>       0.36842105       0.00000000       0.00000000 </v>
   <v>       0.39473684       0.00000000       0.00000000 </v>
   <v>       0.42105263       0.00000000       0.00000000 </v>
   <v>       0.44736842       0.00000000       0.00000000 </v>
   <v>       0.47368421       0.00000000       0.00000000 </v>
   <v>       0.50000000       0.00000000       0.00000000 </v>
  </varray>
  <varray name="weights" >
   <v>       0.05000000 </v>
   <v>       0.05000000 </v>
   <v>       0.05000000 </v>
   <v>       0.05000000 </v>
   <v>       0.05000000 </v>
   <v>       0.05000000 </v>
   <v>       0.05000000 </v>
   <v>       0.05000000 </v>
   <v>       0.05000000 </v>
   <v>       0.05000000 </v>
   <v>       0.05000000 </v>
   <v>       0.05000000 </v>
   <v>       0.05000000 </v>
   <v>       0.05000000 </v>
   <v>       0.05000000 </v>
   <v>       0.05000000 </v>
   <v>       0.05000000 </v>
   <v>       0.05000000 </v>
   <v>       0.05000000 </v>
   <v>       0.05000000 </v>
  </varray>
 </kpoints>
 <parameters>
  <separator name="general" >
   <i type="string" name="SYSTEM">jump2</i>
   <i type="logical" name="LCOMPAT"> F  </i>
  </separator>
  <separator name="electronic" >
   <i type="string" name="PREC">normal</i>
   <i name="ENMAX">    325.00000000</i>
   <i name="ENAUG">    400.00000000</i>
   <i name="EDIFF">      0.00010000</i>
   <i type="int" name="IALGO">    48</i>
   <i type="int" name="IWAVPR">    10</i>
   <i type="int" name="NBANDS">     8</i>
   <i name="NELECT">      1.00000000</i>
   <i type="int" name="TURBO">     0</i>
   <i type="int" name="IRESTART">     0</i>
   <i type="int" name="NREBOOT">     0</i>
   <i type="int" name="NMIN">     0</i>
   <i name="EREF">      0.00000000</i>
   <separator name="electronic smearing" >
    <i type="int" name="ISMEAR">     0</i>
    <i name="SIGMA">      0.10000000</i>
    <i name="KSPACING">      0.50000000</i>
    <i type="logical" name="KGAMMA"> T  </i>
   </separator>
   <separator name="electronic projectors" >
    <i type="logical" name="LREAL"> T  </i>
    <v name="ROPT">     -0.00050000</v>
    <i type="int" name="LMAXPAW">  -100</i>
    <i type="int" name="LMAXMIX">     2</i>
    <i type="logical" name="NLSPLINE"> F  </i>
   </separator>
   <separator name="electronic startup" >
    <i type="int" name="ISTART">     1</i>
    <i type="int" name="ICHARG">    11</i>
    <i type="int" name="INIWAV">     1</i>
   </separator>
   <separator name="electronic spin" >
    <i type="int" name="ISPIN">     1</i>
    <i type="logical" name="LNONCOLLINEAR"> F  </i>
    <v name="MAGMOM">      1.00000000</v>
    <i name="NUPDOWN">     -1.00000000</i>
    <i type="logical" name="LSORBIT"> F  </i>
    <v name="SAXIS">      0.00000000      0.00000000      1.00000000</v>
    <i type="logical" name="LSPIRAL"> F  </i>
    <v name="QSPIRAL">      0.00000000      0.00000000      0.00000000</v>
    <i type="logical" name="LZEROZ"> F  </i>
   </separator>
   <separator name="electronic exchange-correlation" >
    <i type="logical" name="LASPH"> F  </i>
    <i type="logical" name="LMETAGGA"> F  </i>
   </separator>
   <separator name="electronic convergence" >
    <i type="int" name="NELM">   100</i>
    <i type="int" name="NELMDL">     0</i>
    <i type="int" name="NELMIN">     2</i>
    <i name="ENINI">    325.00000000</i>
    <separator name="electronic convergence detail" >
     <i type="logical" name="LDIAG"> T  </i>
     <i type="logical" name="LSUBROT"> T  </i>
     <i name="WEIMIN">      0.00000000</i>
     <i name="EBREAK">      0.00000313</i>
     <i name="DEPER">      0.30000000</i>
     <i type="int" name="NRMM">     4</i>
     <i name="TIME">      0.40000000</i>
    </separator>
   </separator>
   <separator name="electronic mixer" >
    <i name="AMIX">      0.40000000</i>
    <i name="BMIX">      1.00000000</i>
    <i name="AMIN">      0.01000000</i>
    <i name="AMIX_MAG">      1.60000000</i>
    <i name="BMIX_MAG">      1.00000000</i>
    <separator name="electronic mixer details" >
     <i type="int" name="IMIX">     4</i>
     <i type="int" name="MAXMIX">   -45</i>
     <i name="WC">    100.00000000</i>
     <i type="int" name="INIMIX">     1</i>
     <i type="int" name="MIXPRE">     1</i>
     <i type="int" name="MREMOVE">     5</i>
    </separator>
   </separator>
   <separator name="electronic dipolcorrection" >
    <i type="logical" name="LDIPOL"> F  </i>
    <i type="logical" name="LMONO"> F  </i>
    <i type="int" name="IDIPOL">     0</i>
    <i name="EPSILON">      1.00000000</i>
    <v name="DIPOL">   -100.00000000   -100.00000000   -100.00000000</v>
    <i name="EFIELD">      0.00000000</i>
   </separator>
  </separator>
  <separator name="grids" >
   <i type="int" name="NGX">     6</i>
   <i type="int" name="NGY">     6</i>
   <i type="int" name="NGZ">     6</i>
   <i type="int" name="NGXF">    12</i>
   <i type="int" name="NGYF">    12</i>
   <i type="int" name="NGZF">    12</i>
   <i type="logical" name="ADDGRID"> T  </i>
  </separator>
  <separator name="ionic" >
   <i type="int" name="NSW">     0</i>
   <i type="int" name="IBRION">    -1</i>
   <i type="int" name="ISIF">     2</i>
   <i name="PSTRESS">      0.00000000</i>
   <i name="EDIFFG">     -0.01000000</i>
   <i type="int" name="NFREE">     0</i>
   <i name="POTIM">      0.50000000</i>
   <i name="SMASS">     -3.00000000</i>
   <i name="SCALEE">      1.00000000</i>
  </separator>
  <separator name="ionic md" >
   <i name="TEBEG">      0.00010000</i>
   <i name="TEEND">      0.00010000</i>
   <i type="int" name="NBLOCK">     1</i>
   <i type="int" name="KBLOCK">     1</i>
   <i type="int" name="NPACO">   256</i>
   <i name="APACO">     16.00000000</i>
  </separator>
  <separator name="symmetry" >
   <i type="int" name="ISYM">     2</i>
   <i name="SYMPREC">      0.00001000</i>
  </separator>
  <separator name="dos" >
   <i type="logical" name="LORBIT"> F  </i>
   <v name="RWIGS">     -1.00000000</v>
   <i type="int" name="NEDOS">  2001</i>
   <i name="EMIN">     10.00000000</i>
   <i name="EMAX">    -10.00000000</i>
   <i name="EFERMI">      0.00000000</i>
  </separator>
  <separator name="writing" >
   <i type="int" name="NWRITE">     2</i>
   <i type="logical" name="LWAVE"> T  </i>
   <i type="logical" name="LCHARG"> F  </i>
   <i type="logical" name="LPARD"> F  </i>
   <i type="logical" name="LVTOT"> F  </i>
   <i type="logical" name="LVHAR"> F  </i>
   <i type="logical" name="LELF"> F  </i>
   <i type="logical" name="LOPTICS"> F  </i>
   <v name="STM">      0.00000000      0.00000000      0.00000000      0.00000000      0.00000000      0.00000000      0.00000000</v>
  </separator>
  <separator name="performance" >
   <i type="int" name="NPAR">     4</i>
   <i type="int" name="NSIM">     4</i>
   <i type="int" name="NBLK">    -1</i>
   <i type="logical" name="LPLANE"> T  </i>
   <i type="logical" name="LSCALAPACK"> T  </i>
   <i type="logical" name="LSCAAWARE"> T  </i>
   <i type="logical" name="LSCALU"> F  </i>
   <i type="logical" name="LASYNC"> F  </i>
   <i type="logical" name="LORBITALREAL"> F  </i>
  </separator>
  <separator name="miscellaneous" >
   <i type="int" name="IDIOT">     3</i>
   <i type="logical" name="LMUSIC"> F  </i>
   <v name="POMASS">      1.00000000</v>
   <v name="DARWINR">      0.00000000</v>
   <v name="DARWINV">      1.00000000</v>
   <i type="logical" name="LCORR"> T  </i>
  </separator>
  <i type="logical" name="GGA_COMPAT"> T  </i>
  <i type="logical" name="LBERRY"> F  </i>
  <i type="int" name="ICORELEVEL">     0</i>
  <i type="logical" name="LDAU"> F  </i>
  <i type="int" name="I_CONSTRAINED_M">     0</i>
  <separator name="electronic exchange-correlation" >
   <i type="string" name="GGA">--</i>
   <i type="int" name="VOSKOWN">     0</i>
   <i type="logical" name="LHFCALC"> F  </i>
   <i type="string" name="PRECFOCK"></i>
   <i type="logical" name="LHFONE"> F  </i>
   <i type="logical" name="LRHFCALC"> F  </i>
   <i type="logical" name="LTHOMAS"> F  </i>
   <i type="logical" name="LMODELHF"> F  </i>
   <i name="ENCUT4O">     -1.00000000</i>
   <i type="int" name="EXXOEP">     0</i>
   <i type="int" name="FOURORBIT">     0</i>
   <i name="AEXX">      0.00000000</i>
   <i name="HFALPHA">      0.00000000</i>
   <i name="ALDAX">      1.00000000</i>
   <i name="AGGAX">      1.00000000</i>
   <i name="ALDAC">      1.00000000</i>
   <i name="AGGAC">      1.00000000</i>
   <i type="int" name="NKREDX">     1</i>
   <i type="int" name="NKREDY">     1</i>
   <i type="int" name="NKREDZ">     1</i>
   <i type="logical" name="SHIFTRED"> F  </i>
   <i type="logical" name="ODDONLY"> F  </i>
   <i type="logical" name="EVENONLY"> F  </i>
   <i type="int" name="LMAXFOCK">     0</i>
   <i type="int" name="NMAXFOCKAE">     0</i>
   <i type="logical" name="LFOCKAEDFT"> F  </i>
   <i name="HFSCREEN">      0.00000000</i>
   <i name="HFSCREENC">      0.00000000</i>
  </separator>
  <separator name="vdW DFT" >
   <i type="logical" name="LUSE_VDW"> F  </i>
   <i name="Zab_VDW">     -0.84910000</i>
   <i name="PARAM1">      0.12340000</i>
   <i name="PARAM2">      1.00000000</i>
   <i name="PARAM3">      0.00000000</i>
  </separator>
  <separator name="model GW" >
   <i type="int" name="MODEL_GW">     0</i>
   <i name="MODEL_EPS0">      1.77432948</i>
   <i name="MODEL_ALPHA">      1.00000000</i>
  </separator>
  <separator name="linear response parameters" >
   <i type="logical" name="LEPSILON"> F  </i>
   <i type="logical" name="LRPA"> F  </i>
   <i type="logical" name="LNABLA"> F  </i>
   <i type="logical" name="LVEL"> F  </i>
   <i type="int" name="KINTER">     0</i>
   <i name="CSHIFT">      0.10000000</i>
   <i name="OMEGAMAX">     -1.00000000</i>
  </separator>
  <separator name="orbital magnetization" >
   <i type="logical" name="NUCIND"> F  </i>
   <v name="MAGPOS">      0.00000000      0.00000000      0.00000000</v>
   <i type="logical" name="LNICSALL"> T  </i>
   <i type="logical" name="ORBITALMAG"> F  </i>
   <i type="logical" name="LMAGBLOCH"> F  </i>
   <i type="logical" name="LCHIMAG"> F  </i>
   <i type="logical" name="LGAUGE"> T  </i>
   <i type="int" name="MAGATOM">     0</i>
   <v name="MAGDIPOL">      0.00000000      0.00000000      0.00000000</v>
   <v name="AVECCONST">      0.00000000      0.00000000      0.00000000</v>
  </separator>
  <separator name="response functions" >
   <i type="logical" name="LADDER"> F  </i>
   <i type="logical" name="LHARTREE"> T  </i>
   <i type="int" name="IBSE">     0</i>
   <i type="logical" name="LTCTE"> F  </i>
   <i type="logical" name="LTETE"> F  </i>
   <i type="logical" name="LFXCEPS"> F  </i>
   <i type="logical" name="L2ORDER"> F  </i>
   <i type="logical" name="LUSEW"> F  </i>
   <i name="ENCUTGW">     -2.00000000</i>
   <i name="ENCUTGWSOFT">     -2.00000000</i>
   <i name="ENCUTLF">     -1.00000000</i>
   <i type="int" name="LMAXMP2">    -1</i>
   <i name="SCISSOR">      0.00000000</i>
   <i type="int" name="NOMEGA">     0</i>
   <i type="int" name="NOMEGAR">     0</i>
   <i type="int" name="NBANDSGW">    -1</i>
   <i type="int" name="NBANDSO">    -1</i>
   <i type="int" name="NBANDSV">    -1</i>
   <i name="OPTEMAX">      0.00000000</i>
   <i type="int" name="NELM">   100</i>
   <i type="int" name="DIM">     3</i>
   <i type="int" name="ANTIRES">     0</i>
   <i name="OMEGAMAX">    -30.00000000</i>
   <i name="OMEGATL">   -200.00000000</i>
   <i type="int" name="OMEGAGRID">     0</i>
   <i name="CSHIFT">     -0.10000000</i>
   <i type="logical" name="SELFENERGY"> F  </i>
   <i type="logical" name="LSPECTRAL"> F  </i>
   <i type="logical" name="ODDONLYGW"> F  </i>
   <i type="logical" name="EVENONLYGW"> F  </i>
   <i type="int" name="NKREDLFX">     1</i>
   <i type="int" name="NKREDLFY">     1</i>
   <i type="int" name="NKREDLFZ">     1</i>
   <i type="int" name="MAXMEM">  1800</i>
   <i type="int" name="TELESCOPE">     0</i>
  </separator>
 </parameters>
 <atominfo>
  <atoms>       1 </atoms>
  <types>       1 </types>
  <array name="atoms" >
   <dimension dim="1">ion</dimension>
   <field type="string">element</field>
   <field type="int">atomtype</field>
   <set>
    <rc><c>H </c><c>   1</c></rc>
   </set>
  </array>
  <array name="atomtypes" >
   <dimension dim="1">type</dimension>
   <field type="int">atomspertype</field>
   <field type="string">element</field>
   <field>mass</field>
   <field>valence</field>
   <field type="string">pseudopotential</field>
   <set>
    <rc><c>   1</c><c>H </c><c>      1.00000000</c><c>      1.00000000</c><c> PAW_PBE H 15Jun2001                    </c></rc>
   </set>
  </array>
 </atominfo>
 <structure name="initialpos" >
  <crystal>
   <varray name="basis" >
    <v>       1.43536055       0.00000000       0.00000000 </v>
    <v>       0.00000000       1.43536055       0.00000000 </v>
    <v>       0.00000000       0.00000000       1.43536055 </v>
   </varray>
   <i name="volume">      2.95721580 </i>
   <varray name="rec_basis" >
    <v>       0.69668907       0.00000000       0.00000000 </v>
    <v>       0.00000000       0.69668907       0.00000000 </v>
    <v>       0.00000000       0.00000000       0.69668907 </v>
   </varray>
  </crystal>
  <varray name="positions" >
   <v>       0.00000000       0.00000000       0.00000000 </v>
  </varray>
 </structure>
 <calculation>
  <scstep>
   <time name="diag">    0.02    0.04</time>
   <time name="diis">    0.02    0.04</time>
   <time name="orth">    0.00    0.01</time>
   <time name="total">    0.05    0.10</time>
   <energy>
    <i name="alphaZ">      0.82381590 </i>
    <i name="ewald">    -14.23213143 </i>
    <i name="hartreedc">     -0.36095373 </i>
    <i name="XCdc">      2.76127529 </i>
    <i name="pawpsdc">      1.82026030 </i>
    <i name="pawaedc">     -1.83252046 </i>
    <i name="eentropy">     -0.00000000 </i>
    <i name="bandstr">    -12.22101329 </i>
    <i name="atom">     12.45896517 </i>
    <i name="e_fr_energy">    -10.78230225 </i>
    <i name="e_wo_entrp">    -10.78230225 </i>
    <i name="e_0_energy">    -10.78230225 </i>
   </energy>
  </scstep>
  <scstep>
   <time name="diag">    0.02    0.04</time>
   <time name="diis">    0.02    0.04</time>
   <time name="orth">    0.00    0.01</time>
   <time name="total">    0.04    0.09</time>
   <energy>
    <i name="alphaZ">      0.82381590 </i>
    <i name="ewald">    -14.23213143 </i>
    <i name="hartreedc">     -0.36095373 </i>
    <i name="XCdc">      2.76127529 </i>
    <i name="pawpsdc">      1.82026030 </i>
    <i name="pawaedc">     -1.83252046 </i>
    <i name="eentropy">     -0.00000000 </i>
    <i name="bandstr">    -12.22106121 </i>
    <i name="atom">     12.45896517 </i>
    <i name="e_fr_energy">    -10.78235018 </i>
    <i name="e_wo_entrp">    -10.78235018 </i>
    <i name="e_0_energy">    -10.78235018 </i>
   </energy>
  </scstep>
  <parameters_embedded>
   <separator name="dft+d2" >
    <i type="logical" name="LVDW"> F  </i>
   </separator>
  </parameters_embedded>
  <structure>
   <crystal>
    <varray name="basis" >
     <v>       1.43536055       0.00000000       0.00000000 </v>
     <v>       0.00000000       1.43536055       0.00000000 </v>
     <v>       0.00000000       0.00000000       1.43536055 </v>
    </varray>
    <i name="volume">      2.95721580 </i>
    <varray name="rec_basis" >
     <v>       0.69668907       0.00000000       0.00000000 </v>
     <v>       0.00000000       0.69668907       0.00000000 </v>
     <v>       0.00000000       0.00000000       0.69668907 </v>
    </varray>
   </crystal>
   <varray name="positions" >
    <v>       0.00000000       0.00000000       0.00000000 </v>
   </varray>
  </structure>
  <varray name="forces" >
   <v>       0.00000000       0.00000000       0.00000000 </v>
  </varray>
  <varray name="stress" >
   <v>   -3422.63245277       0.00000000       0.00000000 </v>
   <v>       0.00000000   -3422.63245277      -0.00000000 </v>
   <v>       0.00000000      -0.00000000   -3422.63245277 </v>
  </varray>
  <energy>
   <i name="e_fr_energy">    -10.78235018 </i>
   <i name="e_wo_entrp">    -10.78235018 </i>
   <i name="e_0_energy">     -0.00000000 </i>
  </energy>
  <time name="totalsc">    0.12    0.25</time>
  <eigenvalues>
   <array>
    <dimension dim="1">band</dimension>
    <dimension dim="2">kpoint</dimension>
    <dimension dim="3">spin</dimension>
    <field>eigene</field>
    <field>occ</field>
    <set>
     <set comment="spin 1">
      <set comment="kpoint 1">
       <r>  -13.6032    1.0000 </r>
       <r>   50.1446    0.0000 </r>
       <r>   61.6066    0.0000 </r>
       <r>   61.6066    0.0000 </r>
       <r>   63.5882    0.0000 </r>
       <r>  123.2038    0.0000 </r>
       <r>  134.2568    0.0000 </r>
       <r>  136.0324    0.0000 </r>
      </set>
      <set comment="kpoint 2">
       <r>  -13.5544    1.0000 </r>
       <r>   49.7633    0.0000 </r>
       <r>   59.6855    0.0000 </r>
       <r>   61.6568    0.0000 </r>
       <r>   65.9939    0.0000 </r>
       <r>  124.2969    0.0000 </r>
       <r>  132.5062    0.0000 </r>
       <r>  134.1115    0.0000 </r>
      </set>
      <set comment="kpoint 3">
       <r>  -13.4080    1.0000 </r>
       <r>   48.5394    0.0000 </r>
       <r>   57.8048    0.0000 </r>
       <r>   61.8073    0.0000 </r>
       <r>  121.1886    0.0000 </r>
       <r>  133.1047    0.0000 </r>
       <r>  137.0491    0.0000 </r>
       <r>  206.4738    0.0000 </r>
      </set>
      <set comment="kpoint 4">
       <r>  -13.1642    1.0000 </r>
       <r>   46.4821    0.0000 </r>
       <r>   56.7865    0.0000 </r>
       <r>   62.0580    0.0000 </r>
       <r>   73.2043    0.0000 </r>
       <r>  119.9430    0.0000 </r>
       <r>  133.0908    0.0000 </r>
       <r>  203.8781    0.0000 </r>
      </set>
      <set comment="kpoint 5">
       <r>  -12.8231    1.0000 </r>
       <r>   43.8728    0.0000 </r>
       <r>   56.4285    0.0000 </r>
       <r>   62.4088    0.0000 </r>
       <r>   74.8102    0.0000 </r>
       <r>   77.8740    0.0000 </r>
       <r>  118.9114    0.0000 </r>
       <r>  138.1739    0.0000 </r>
      </set>
      <set comment="kpoint 6">
       <r>  -12.3828    1.0000 </r>
       <r>   41.0104    0.0000 </r>
       <r>   56.4793    0.0000 </r>
       <r>   62.8597    0.0000 </r>
       <r>   87.8578    0.0000 </r>
       <r>  112.2020    0.0000 </r>
       <r>  129.7285    0.0000 </r>
       <r>  150.4296    0.0000 </r>
      </set>
      <set comment="kpoint 7">
       <r>  -11.8554    1.0000 </r>
       <r>   38.0126    0.0000 </r>
       <r>   56.7625    0.0000 </r>
       <r>   63.4090    0.0000 </r>
       <r>   85.9316    0.0000 </r>
       <r>  114.0078    0.0000 </r>
       <r>  131.0513    0.0000 </r>
       <r>  141.9000    0.0000 </r>
      </set>
      <set comment="kpoint 8">
       <r>  -11.2268    1.0000 </r>
       <r>   35.0695    0.0000 </r>
       <r>   57.2195    0.0000 </r>
       <r>   64.0588    0.0000 </r>
       <r>   99.8866    0.0000 </r>
       <r>  132.6587    0.0000 </r>
       <r>  156.7640    0.0000 </r>
       <r>  168.9868    0.0000 </r>
      </set>
      <set comment="kpoint 9">
       <r>  -10.5040    1.0000 </r>
       <r>   32.1724    0.0000 </r>
       <r>   57.8063    0.0000 </r>
       <r>   64.8082    0.0000 </r>
       <r>  106.1947    0.0000 </r>
       <r>  126.1465    0.0000 </r>
       <r>  168.8269    0.0000 </r>
       <r>  177.2695    0.0000 </r>
      </set>
      <set comment="kpoint 10">
       <r>   -9.6887    1.0000 </r>
       <r>   29.3455    0.0000 </r>
       <r>   58.5038    0.0000 </r>
       <r>   65.6589    0.0000 </r>
       <r>  102.7636    0.0000 </r>
       <r>  103.5918    0.0000 </r>
       <r>  123.3820    0.0000 </r>
       <r>  166.2194    0.0000 </r>
      </set>
      <set comment="kpoint 11">
       <r>   -8.7832    0.0000 </r>
       <r>   26.6039    0.0000 </r>
       <r>   59.2972    0.0000 </r>
       <r>   66.6077    0.0000 </r>
       <r>  101.2909    0.0000 </r>
       <r>  114.4207    0.0000 </r>
       <r>  133.3628    0.0000 </r>
       <r>  171.5165    0.0000 </r>
      </set>
      <set comment="kpoint 12">
       <r>   -7.7910    0.0000 </r>
       <r>   23.9587    0.0000 </r>
       <r>   60.1780    0.0000 </r>
       <r>   68.4724    0.0000 </r>
       <r>   95.2671    0.0000 </r>
       <r>  104.4349    0.0000 </r>
       <r>  162.1974    0.0000 </r>
       <r>  179.8404    0.0000 </r>
      </set>
      <set comment="kpoint 13">
       <r>   -6.7172    0.0000 </r>
       <r>   21.4200    0.0000 </r>
       <r>   61.1271    0.0000 </r>
       <r>   69.6110    0.0000 </r>
       <r>   98.9871    0.0000 </r>
       <r>  108.5473    0.0000 </r>
       <r>  148.9713    0.0000 </r>
       <r>  145.2828    0.0000 </r>
      </set>
      <set comment="kpoint 14">
       <r>   -5.5776    0.0000 </r>
       <r>   18.9898    0.0000 </r>
       <r>   62.0765    0.0000 </r>
       <r>   70.7462    0.0000 </r>
       <r>   92.4888    0.0000 </r>
       <r>   93.6399    0.0000 </r>
       <r>  142.1689    0.0000 </r>
       <r>  176.7404    0.0000 </r>
      </set>
      <set comment="kpoint 15">
       <r>   -4.3714    0.0000 </r>
       <r>   16.7034    0.0000 </r>
       <r>   63.0902    0.0000 </r>
       <r>   71.9907    0.0000 </r>
       <r>   90.4475    0.0000 </r>
       <r>   98.9519    0.0000 </r>
       <r>  139.1652    0.0000 </r>
       <r>  153.1567    0.0000 </r>
      </set>
      <set comment="kpoint 16">
       <r>   -3.1294    0.0000 </r>
       <r>   14.5762    0.0000 </r>
       <r>   64.0684    0.0000 </r>
       <r>   73.3111    0.0000 </r>
       <r>   90.1353    0.0000 </r>
       <r>  137.9533    0.0000 </r>
       <r>  146.9130    0.0000 </r>
       <r>  145.2247    0.0000 </r>
      </set>
      <set comment="kpoint 17">
       <r>   -1.8964    0.0000 </r>
       <r>   12.6540    0.0000 </r>
       <r>   65.0038    0.0000 </r>
       <r>   74.7401    0.0000 </r>
       <r>   87.7449    0.0000 </r>
       <r>  117.7372    0.0000 </r>
       <r>  145.7170    0.0000 </r>
       <r>  156.9110    0.0000 </r>
      </set>
      <set comment="kpoint 18">
       <r>   -0.7710    0.0000 </r>
       <r>   11.0139    0.0000 </r>
       <r>   65.7611    0.0000 </r>
       <r>   75.9123    0.0000 </r>
       <r>   80.7085    0.0000 </r>
       <r>  150.1412    0.0000 </r>
       <r>  151.6854    0.0000 </r>
       <r>  218.2777    0.0000 </r>
      </set>
      <set comment="kpoint 19">
       <r>    0.0931    0.0000 </r>
       <r>    9.8537    0.0000 </r>
       <r>   66.2990    0.0000 </r>
       <r>   77.1801    0.0000 </r>
       <r>   84.1346    0.0000 </r>
       <r>  145.4826    0.0000 </r>
       <r>  151.2386    0.0000 </r>
       <r>  152.5152    0.0000 </r>
      </set>
      <set comment="kpoint 20">
       <r>    0.4316    0.0000 </r>
       <r>    9.4165    0.0000 </r>
       <r>   66.4942    0.0000 </r>
       <r>   77.5882    0.0000 </r>
       <r>   80.6076    0.0000 </r>
       <r>  146.1778    0.0000 </r>
       <r>  151.3356    0.0000 </r>
       <r>  153.0335    0.0000 </r>
      </set>
     </set>
    </set>
   </array>
  </eigenvalues>
  <separator name="orbital magnetization" >
   <v name="MAGDIPOLOUT">      0.00000000      0.00000000      0.00000000</v>
  </separator>
  <dos>
   <i name="efermi">     -9.24750060 </i>
   <total>
    <array>
     <dimension dim="1">gridpoints</dimension>
     <dimension dim="2">spin</dimension>
     <field>energy</field>
     <field>total</field>
     <field>integrated</field>
     <set>
      <set comment="spin 1">
       <r>   -25.1973     0.0000     0.0000 </r>
       <r>   -25.0697     0.0000     0.0000 </r>
       <r>   -24.9422     0.0000     0.0000 </r>
       <r>   -24.8147     0.0000     0.0000 </r>
       <r>   -24.6871     0.0000     0.0000 </r>
       <r>   -24.5596     0.0000     0.0000 </r>
       <r>   -24.4321     0.0000     0.0000 </r>
       <r>   -24.3045     0.0000     0.0000 </r>
       <r>   -24.1770     0.0000     0.0000 </r>
       <r>   -24.0495     0.0000     0.0000 </r>
       <r>   -23.9219     0.0000     0.0000 </r>
       <r>   -23.7944     0.0000     0.0000 </r>
       <r>   -23.6669     0.0000     0.0000 </r>
       <r>   -23.5393     0.0000     0.0000 </r>
       <r>   -23.4118     0.0000     0.0000 </r>
       <r>   -23.2843     0.0000     0.0000 </r>
       <r>   -23.1567     0.0000     0.0000 </r>
       <r>   -23.0292     0.0000     0.0000 </r>
       <r>   -22.9017     0.0000     0.0000 </r>
       <r>   -22.7741     0.0000     0.0000 </r>
       <r>   -22.6466     0.0000     0.0000 </r>
       <r>   -22.5191     0.0000     0.0000 </r>
       <r>   -22.3915     0.0000     0.0000 </r>
       <r>   -22.2640     0.0000     0.0000 </r>
       <r>   -22.1365     0.0000     0.0000 </r>
       <r>   -22.0089     0.0000     0.0000 </r>
       <r>   -21.8814     0.0000     0.0000 </r>
       <r>   -21.7539     0.0000     0.0000 </r>
       <r>   -21.6263     0.0000     0.0000 </r>
       <r>   -21.4988     0.0000     0.0000 </r>
       <r>   -21.3712     0.0000     0.0000 </r>
       <r>   -21.2437     0.0000     0.0000 </r>
       <r>   -21.1162     0.0000     0.0000 </r>
       <r>   -20.9886     0.0000     0.0000 </r>
       <r>   -20.8611     0.0000     0.0000 </r>
       <r>   -20.7336     0.0000     0.0000 </r>
       <r>   -20.6060     0.0000     0.0000 </r>
       <r>   -20.4785     0.0000     0.0000 </r>
       <r>   -20.3510     0.0000     0.0000 </r>
       <r>   -20.2234     0.0000     0.0000 </r>
       <r>   -20.0959     0.0000     0.0000 </r>
       <r>   -19.9684     0.0000     0.0000 </r>
       <r>   -19.8408     0.0000     0.0000 </r>
       <r>   -19.7133     0.0000     0.0000 </r>
       <r>   -19.5858     0.0000     0.0000 </r>
       <r>   -19.4582     0.0000     0.0000 </r>
       <r>   -19.3307     0.0000     0.0000 </r>
       <r>   -19.2032     0.0000     0.0000 </r>
       <r>   -19.0756     0.0000     0.0000 </r>
       <r>   -18.9481     0.0000     0.0000 </r>
       <r>   -18.8206     0.0000     0.0000 </r>
       <r>   -18.6930     0.0000     0.0000 </r>
       <r>   -18.5655     0.0000     0.0000 </r>
       <r>   -18.4380     0.0000     0.0000 </r>
       <r>   -18.3104     0.0000     0.0000 </r>
       <r>   -18.1829     0.0000     0.0000 </r>
       <r>   -18.0554     0.0000     0.0000 </r>
       <r>   -17.9278     0.0000     0.0000 </r>
       <r>   -17.8003     0.0000     0.0000 </r>
       <r>   -17.6727     0.0000     0.0000 </r>
       <r>   -17.5452     0.0000     0.0000 </r>
       <r>   -17.4177     0.0000     0.0000 </r>
       <r>   -17.2901     0.0000     0.0000 </r>
       <r>   -17.1626     0.0000     0.0000 </r>
       <r>   -17.0351     0.0000     0.0000 </r>
       <r>   -16.9075     0.0000     0.0000 </r>
       <r>   -16.7800     0.0000     0.0000 </r>
       <r>   -16.6525     0.0000     0.0000 </r>
       <r>   -16.5249     0.0000     0.0000 </r>
       <r>   -16.3974     0.0000     0.0000 </r>
       <r>   -16.2699     0.0000     0.0000 </r>
       <r>   -16.1423     0.0000     0.0000 </r>
       <r>   -16.0148     0.0000     0.0000 </r>
       <r>   -15.8873     0.0000     0.0000 </r>
       <r>   -15.7597     0.0000     0.0000 </r>
       <r>   -15.6322     0.0000     0.0000 </r>
       <r>   -15.5047     0.0000     0.0000 </r>
       <r>   -15.3771     0.0000     0.0000 </r>
       <r>   -15.2496     0.0000     0.0000 </r>
       <r>   -15.1221     0.0000     0.0000 </r>
       <r>   -14.9945     0.0000     0.0000 </r>
       <r>   -14.8670     0.0000     0.0000 </r>
       <r>   -14.7395     0.0000     0.0000 </r>
       <r>   -14.6119     0.0000     0.0000 </r>
       <r>   -14.4844     0.0000     0.0000 </r>
       <r>   -14.3569     0.0000     0.0000 </r>
       <r>   -14.2293     0.0000     0.0000 </r>
       <r>   -14.1018     0.0000     0.0000 </r>
       <r>   -13.9742     0.0000     0.0000 </r>
       <r>   -13.8467     0.0002     0.0000 </r>
       <r>   -13.7192     0.0472     0.0060 </r>
       <r>   -13.5916     0.6341     0.0869 </r>
       <r>   -13.4641     0.9561     0.2088 </r>
       <r>   -13.3366     0.5972     0.2850 </r>
       <r>   -13.2090     0.3217     0.3260 </r>
       <r>   -13.0815     0.4850     0.3879 </r>
       <r>   -12.9540     0.1190     0.4031 </r>
       <r>   -12.8264     0.3534     0.4481 </r>
       <r>   -12.6989     0.3757     0.4961 </r>
       <r>   -12.5714     0.0338     0.5004 </r>
       <r>   -12.4438     0.1494     0.5194 </r>
       <r>   -12.3163     0.4959     0.5827 </r>
       <r>   -12.1888     0.1335     0.5997 </r>
       <r>   -12.0612     0.0038     0.6002 </r>
       <r>   -11.9337     0.1037     0.6134 </r>
       <r>   -11.8062     0.4883     0.6757 </r>
       <r>   -11.6786     0.1857     0.6994 </r>
       <r>   -11.5511     0.0049     0.7000 </r>
       <r>   -11.4236     0.0021     0.7003 </r>
       <r>   -11.2960     0.1262     0.7164 </r>
       <r>   -11.1685     0.4951     0.7795 </r>
       <r>   -11.0410     0.1573     0.7996 </r>
       <r>   -10.9134     0.0034     0.8000 </r>
       <r>   -10.7859     0.0000     0.8000 </r>
       <r>   -10.6584     0.0113     0.8015 </r>
       <r>   -10.5308     0.2647     0.8352 </r>
       <r>   -10.4033     0.4475     0.8923 </r>
       <r>   -10.2757     0.0601     0.8999 </r>
       <r>   -10.1482     0.0005     0.9000 </r>
       <r>   -10.0207     0.0000     0.9000 </r>
       <r>    -9.8931     0.0015     0.9002 </r>
       <r>    -9.7656     0.1070     0.9138 </r>
       <r>    -9.6381     0.4897     0.9763 </r>
       <r>    -9.5105     0.1813     0.9994 </r>
       <r>    -9.3830     0.0046     1.0000 </r>
       <r>    -9.2555     0.0000     1.0000 </r>
       <r>    -9.1279     0.0000     1.0000 </r>
       <r>    -9.0004     0.0008     1.0001 </r>
       <r>    -8.8729     0.0795     1.0102 </r>
       <r>    -8.7453     0.4717     1.0704 </r>
       <r>    -8.6178     0.2245     1.0990 </r>
       <r>    -8.4903     0.0076     1.1000 </r>
       <r>    -8.3627     0.0000     1.1000 </r>
       <r>    -8.2352     0.0000     1.1000 </r>
       <r>    -8.1077     0.0000     1.1000 </r>
       <r>    -7.9801     0.0029     1.1004 </r>
       <r>    -7.8526     0.1476     1.1192 </r>
       <r>    -7.7251     0.4960     1.1825 </r>
       <r>    -7.5975     0.1351     1.1997 </r>
       <r>    -7.4700     0.0024     1.2000 </r>
       <r>    -7.3425     0.0000     1.2000 </r>
       <r>    -7.2149     0.0000     1.2000 </r>
       <r>    -7.0874     0.0000     1.2000 </r>
       <r>    -6.9599     0.0002     1.2000 </r>
       <r>    -6.8323     0.0404     1.2052 </r>
       <r>    -6.7048     0.4062     1.2570 </r>
       <r>    -6.5772     0.3185     1.2976 </r>
       <r>    -6.4497     0.0187     1.3000 </r>
       <r>    -6.3222     0.0001     1.3000 </r>
       <r>    -6.1946     0.0000     1.3000 </r>
       <r>    -6.0671     0.0000     1.3000 </r>
       <r>    -5.9396     0.0000     1.3000 </r>
       <r>    -5.8120     0.0004     1.3000 </r>
       <r>    -5.6845     0.0509     1.3065 </r>
       <r>    -5.5570     0.4309     1.3615 </r>
       <r>    -5.4294     0.2878     1.3982 </r>
       <r>    -5.3019     0.0141     1.4000 </r>
       <r>    -5.1744     0.0000     1.4000 </r>
       <r>    -5.0468     0.0000     1.4000 </r>
       <r>    -4.9193     0.0000     1.4000 </r>
       <r>    -4.7918     0.0000     1.4000 </r>
       <r>    -4.6642     0.0000     1.4000 </r>
       <r>    -4.5367     0.0076     1.4010 </r>
       <r>    -4.4092     0.2248     1.4296 </r>
       <r>    -4.2816     0.4715     1.4898 </r>
       <r>    -4.1541     0.0793     1.4999 </r>
       <r>    -4.0266     0.0008     1.5000 </r>
       <r>    -3.8990     0.0000     1.5000 </r>
       <r>    -3.7715     0.0000     1.5000 </r>
       <r>    -3.6440     0.0000     1.5000 </r>
       <r>    -3.5164     0.0000     1.5000 </r>
       <r>    -3.3889     0.0001     1.5000 </r>
       <r>    -3.2614     0.0242     1.5031 </r>
       <r>    -3.1338     0.3480     1.5475 </r>
       <r>    -3.0063     0.3797     1.5959 </r>
       <r>    -2.8787     0.0319     1.6000 </r>
       <r>    -2.7512     0.0002     1.6000 </r>
       <r>    -2.6237     0.0000     1.6000 </r>
       <r>    -2.4961     0.0000     1.6000 </r>
       <r>    -2.3686     0.0000     1.6000 </r>
       <r>    -2.2411     0.0000     1.6000 </r>
       <r>    -2.1135     0.0008     1.6001 </r>
       <r>    -1.9860     0.0796     1.6103 </r>
       <r>    -1.8585     0.4717     1.6704 </r>
       <r>    -1.7309     0.2244     1.6990 </r>
       <r>    -1.6034     0.0075     1.7000 </r>
       <r>    -1.4759     0.0000     1.7000 </r>
       <r>    -1.3483     0.0000     1.7000 </r>
       <r>    -1.2208     0.0000     1.7000 </r>
       <r>    -1.0933     0.0000     1.7000 </r>
       <r>    -0.9657     0.0023     1.7003 </r>
       <r>    -0.8382     0.1318     1.7171 </r>
       <r>    -0.7107     0.4958     1.7803 </r>
       <r>    -0.5831     0.1511     1.7996 </r>
       <r>    -0.4556     0.0031     1.8000 </r>
       <r>    -0.3281     0.0000     1.8000 </r>
       <r>    -0.2005     0.0000     1.8000 </r>
       <r>    -0.0730     0.0074     1.8009 </r>
       <r>     0.0545     0.2222     1.8293 </r>
       <r>     0.1821     0.4730     1.8896 </r>
       <r>     0.3096     0.1137     1.9041 </r>
       <r>     0.4371     0.3843     1.9531 </r>
       <r>     0.5647     0.3441     1.9970 </r>
       <r>     0.6922     0.0234     2.0000 </r>
       <r>     0.8198     0.0001     2.0000 </r>
       <r>     0.9473     0.0000     2.0000 </r>
       <r>     1.0748     0.0000     2.0000 </r>
       <r>     1.2024     0.0000     2.0000 </r>
       <r>     1.3299     0.0000     2.0000 </r>
       <r>     1.4574     0.0000     2.0000 </r>
       <r>     1.5850     0.0000     2.0000 </r>
       <r>     1.7125     0.0000     2.0000 </r>
       <r>     1.8400     0.0000     2.0000 </r>
       <r>     1.9676     0.0000     2.0000 </r>
       <r>     2.0951     0.0000     2.0000 </r>
       <r>     2.2226     0.0000     2.0000 </r>
       <r>     2.3502     0.0000     2.0000 </r>
       <r>     2.4777     0.0000     2.0000 </r>
       <r>     2.6052     0.0000     2.0000 </r>
       <r>     2.7328     0.0000     2.0000 </r>
       <r>     2.8603     0.0000     2.0000 </r>
       <r>     2.9878     0.0000     2.0000 </r>
       <r>     3.1154     0.0000     2.0000 </r>
       <r>     3.2429     0.0000     2.0000 </r>
       <r>     3.3704     0.0000     2.0000 </r>
       <r>     3.4980     0.0000     2.0000 </r>
       <r>     3.6255     0.0000     2.0000 </r>
       <r>     3.7530     0.0000     2.0000 </r>
       <r>     3.8806     0.0000     2.0000 </r>
       <r>     4.0081     0.0000     2.0000 </r>
       <r>     4.1357     0.0000     2.0000 </r>
       <r>     4.2632     0.0000     2.0000 </r>
       <r>     4.3907     0.0000     2.0000 </r>
       <r>     4.5183     0.0000     2.0000 </r>
       <r>     4.6458     0.0000     2.0000 </r>
       <r>     4.7733     0.0000     2.0000 </r>
       <r>     4.9009     0.0000     2.0000 </r>
       <r>     5.0284     0.0000     2.0000 </r>
       <r>     5.1559     0.0000     2.0000 </r>
       <r>     5.2835     0.0000     2.0000 </r>
       <r>     5.4110     0.0000     2.0000 </r>
       <r>     5.5385     0.0000     2.0000 </r>
       <r>     5.6661     0.0000     2.0000 </r>
       <r>     5.7936     0.0000     2.0000 </r>
       <r>     5.9211     0.0000     2.0000 </r>
       <r>     6.0487     0.0000     2.0000 </r>
       <r>     6.1762     0.0000     2.0000 </r>
       <r>     6.3037     0.0000     2.0000 </r>
       <r>     6.4313     0.0000     2.0000 </r>
       <r>     6.5588     0.0000     2.0000 </r>
       <r>     6.6863     0.0000     2.0000 </r>
       <r>     6.8139     0.0000     2.0000 </r>
       <r>     6.9414     0.0000     2.0000 </r>
       <r>     7.0689     0.0000     2.0000 </r>
       <r>     7.1965     0.0000     2.0000 </r>
       <r>     7.3240     0.0000     2.0000 </r>
       <r>     7.4515     0.0000     2.0000 </r>
       <r>     7.5791     0.0000     2.0000 </r>
       <r>     7.7066     0.0000     2.0000 </r>
       <r>     7.8342     0.0000     2.0000 </r>
       <r>     7.9617     0.0000     2.0000 </r>
       <r>     8.0892     0.0000     2.0000 </r>
       <r>     8.2168     0.0000     2.0000 </r>
       <r>     8.3443     0.0000     2.0000 </r>
       <r>     8.4718     0.0000     2.0000 </r>
       <r>     8.5994     0.0000     2.0000 </r>
       <r>     8.7269     0.0000     2.0000 </r>
       <r>     8.8544     0.0000     2.0000 </r>
       <r>     8.9820     0.0000     2.0000 </r>
       <r>     9.1095     0.0000     2.0000 </r>
       <r>     9.2370     0.0044     2.0006 </r>
       <r>     9.3646     0.1771     2.0231 </r>
       <r>     9.4921     0.4910     2.0858 </r>
       <r>     9.6196     0.1105     2.0998 </r>
       <r>     9.7472     0.0529     2.1066 </r>
       <r>     9.8747     0.4319     2.1617 </r>
       <r>    10.0022     0.2865     2.1982 </r>
       <r>    10.1298     0.0140     2.2000 </r>
       <r>    10.2573     0.0000     2.2000 </r>
       <r>    10.3848     0.0000     2.2000 </r>
       <r>    10.5124     0.0000     2.2000 </r>
       <r>    10.6399     0.0000     2.2000 </r>
       <r>    10.7674     0.0002     2.2000 </r>
       <r>    10.8950     0.0361     2.2046 </r>
       <r>    11.0225     0.3938     2.2549 </r>
       <r>    11.1500     0.3327     2.2973 </r>
       <r>    11.2776     0.0212     2.3000 </r>
       <r>    11.4051     0.0001     2.3000 </r>
       <r>    11.5327     0.0000     2.3000 </r>
       <r>    11.6602     0.0000     2.3000 </r>
       <r>    11.7877     0.0000     2.3000 </r>
       <r>    11.9153     0.0000     2.3000 </r>
       <r>    12.0428     0.0000     2.3000 </r>
       <r>    12.1703     0.0000     2.3000 </r>
       <r>    12.2979     0.0000     2.3000 </r>
       <r>    12.4254     0.0005     2.3001 </r>
       <r>    12.5529     0.0594     2.3076 </r>
       <r>    12.6805     0.4464     2.3646 </r>
       <r>    12.8080     0.2662     2.3985 </r>
       <r>    12.9355     0.0115     2.4000 </r>
       <r>    13.0631     0.0000     2.4000 </r>
       <r>    13.1906     0.0000     2.4000 </r>
       <r>    13.3181     0.0000     2.4000 </r>
       <r>    13.4457     0.0000     2.4000 </r>
       <r>    13.5732     0.0000     2.4000 </r>
       <r>    13.7007     0.0000     2.4000 </r>
       <r>    13.8283     0.0000     2.4000 </r>
       <r>    13.9558     0.0000     2.4000 </r>
       <r>    14.0833     0.0000     2.4000 </r>
       <r>    14.2109     0.0000     2.4000 </r>
       <r>    14.3384     0.0003     2.4000 </r>
       <r>    14.4659     0.0463     2.4059 </r>
       <r>    14.5935     0.4211     2.4596 </r>
       <r>    14.7210     0.3005     2.4980 </r>
       <r>    14.8485     0.0159     2.5000 </r>
       <r>    14.9761     0.0000     2.5000 </r>
       <r>    15.1036     0.0000     2.5000 </r>
       <r>    15.2312     0.0000     2.5000 </r>
       <r>    15.3587     0.0000     2.5000 </r>
       <r>    15.4862     0.0000     2.5000 </r>
       <r>    15.6138     0.0000     2.5000 </r>
       <r>    15.7413     0.0000     2.5000 </r>
       <r>    15.8688     0.0000     2.5000 </r>
       <r>    15.9964     0.0000     2.5000 </r>
       <r>    16.1239     0.0000     2.5000 </r>
       <r>    16.2514     0.0000     2.5000 </r>
       <r>    16.3790     0.0000     2.5000 </r>
       <r>    16.5065     0.0021     2.5003 </r>
       <r>    16.6340     0.1259     2.5163 </r>
       <r>    16.7616     0.4950     2.5795 </r>
       <r>    16.8891     0.1577     2.5996 </r>
       <r>    17.0166     0.0034     2.6000 </r>
       <r>    17.1442     0.0000     2.6000 </r>
       <r>    17.2717     0.0000     2.6000 </r>
       <r>    17.3992     0.0000     2.6000 </r>
       <r>    17.5268     0.0000     2.6000 </r>
       <r>    17.6543     0.0000     2.6000 </r>
       <r>    17.7818     0.0000     2.6000 </r>
       <r>    17.9094     0.0000     2.6000 </r>
       <r>    18.0369     0.0000     2.6000 </r>
       <r>    18.1644     0.0000     2.6000 </r>
       <r>    18.2920     0.0000     2.6000 </r>
       <r>    18.4195     0.0000     2.6000 </r>
       <r>    18.5470     0.0000     2.6000 </r>
       <r>    18.6746     0.0000     2.6000 </r>
       <r>    18.8021     0.0031     2.6004 </r>
       <r>    18.9297     0.1517     2.6197 </r>
       <r>    19.0572     0.4957     2.6830 </r>
       <r>    19.1847     0.1313     2.6997 </r>
       <r>    19.3123     0.0023     2.7000 </r>
       <r>    19.4398     0.0000     2.7000 </r>
       <r>    19.5673     0.0000     2.7000 </r>
       <r>    19.6949     0.0000     2.7000 </r>
       <r>    19.8224     0.0000     2.7000 </r>
       <r>    19.9499     0.0000     2.7000 </r>
       <r>    20.0775     0.0000     2.7000 </r>
       <r>    20.2050     0.0000     2.7000 </r>
       <r>    20.3325     0.0000     2.7000 </r>
       <r>    20.4601     0.0000     2.7000 </r>
       <r>    20.5876     0.0000     2.7000 </r>
       <r>    20.7151     0.0000     2.7000 </r>
       <r>    20.8427     0.0000     2.7000 </r>
       <r>    20.9702     0.0000     2.7000 </r>
       <r>    21.0977     0.0000     2.7000 </r>
       <r>    21.2253     0.0023     2.7003 </r>
       <r>    21.3528     0.1318     2.7171 </r>
       <r>    21.4803     0.4958     2.7803 </r>
       <r>    21.6079     0.1511     2.7996 </r>
       <r>    21.7354     0.0031     2.8000 </r>
       <r>    21.8629     0.0000     2.8000 </r>
       <r>    21.9905     0.0000     2.8000 </r>
       <r>    22.1180     0.0000     2.8000 </r>
       <r>    22.2455     0.0000     2.8000 </r>
       <r>    22.3731     0.0000     2.8000 </r>
       <r>    22.5006     0.0000     2.8000 </r>
       <r>    22.6282     0.0000     2.8000 </r>
       <r>    22.7557     0.0000     2.8000 </r>
       <r>    22.8832     0.0000     2.8000 </r>
       <r>    23.0108     0.0000     2.8000 </r>
       <r>    23.1383     0.0000     2.8000 </r>
       <r>    23.2658     0.0000     2.8000 </r>
       <r>    23.3934     0.0000     2.8000 </r>
       <r>    23.5209     0.0000     2.8000 </r>
       <r>    23.6484     0.0000     2.8000 </r>
       <r>    23.7760     0.0038     2.8005 </r>
       <r>    23.9035     0.1668     2.8218 </r>
       <r>    24.0310     0.4934     2.8847 </r>
       <r>    24.1586     0.1182     2.8998 </r>
       <r>    24.2861     0.0018     2.9000 </r>
       <r>    24.4136     0.0000     2.9000 </r>
       <r>    24.5412     0.0000     2.9000 </r>
       <r>    24.6687     0.0000     2.9000 </r>
       <r>    24.7962     0.0000     2.9000 </r>
       <r>    24.9238     0.0000     2.9000 </r>
       <r>    25.0513     0.0000     2.9000 </r>
       <r>    25.1788     0.0000     2.9000 </r>
       <r>    25.3064     0.0000     2.9000 </r>
       <r>    25.4339     0.0000     2.9000 </r>
       <r>    25.5614     0.0000     2.9000 </r>
       <r>    25.6890     0.0000     2.9000 </r>
       <r>    25.8165     0.0000     2.9000 </r>
       <r>    25.9440     0.0000     2.9000 </r>
       <r>    26.0716     0.0000     2.9000 </r>
       <r>    26.1991     0.0000     2.9000 </r>
       <r>    26.3267     0.0000     2.9000 </r>
       <r>    26.4542     0.0134     2.9017 </r>
       <r>    26.5817     0.2822     2.9377 </r>
       <r>    26.7093     0.4351     2.9932 </r>
       <r>    26.8368     0.0530     3.0000 </r>
       <r>    26.9643     0.0004     3.0000 </r>
       <r>    27.0919     0.0000     3.0000 </r>
       <r>    27.2194     0.0000     3.0000 </r>
       <r>    27.3469     0.0000     3.0000 </r>
       <r>    27.4745     0.0000     3.0000 </r>
       <r>    27.6020     0.0000     3.0000 </r>
       <r>    27.7295     0.0000     3.0000 </r>
       <r>    27.8571     0.0000     3.0000 </r>
       <r>    27.9846     0.0000     3.0000 </r>
       <r>    28.1121     0.0000     3.0000 </r>
       <r>    28.2397     0.0000     3.0000 </r>
       <r>    28.3672     0.0000     3.0000 </r>
       <r>    28.4947     0.0000     3.0000 </r>
       <r>    28.6223     0.0000     3.0000 </r>
       <r>    28.7498     0.0000     3.0000 </r>
       <r>    28.8773     0.0000     3.0000 </r>
       <r>    29.0049     0.0000     3.0000 </r>
       <r>    29.1324     0.0010     3.0001 </r>
       <r>    29.2599     0.0877     3.0113 </r>
       <r>    29.3875     0.4787     3.0724 </r>
       <r>    29.5150     0.2102     3.0992 </r>
       <r>    29.6425     0.0065     3.1000 </r>
       <r>    29.7701     0.0000     3.1000 </r>
       <r>    29.8976     0.0000     3.1000 </r>
       <r>    30.0252     0.0000     3.1000 </r>
       <r>    30.1527     0.0000     3.1000 </r>
       <r>    30.2802     0.0000     3.1000 </r>
       <r>    30.4078     0.0000     3.1000 </r>
       <r>    30.5353     0.0000     3.1000 </r>
       <r>    30.6628     0.0000     3.1000 </r>
       <r>    30.7904     0.0000     3.1000 </r>
       <r>    30.9179     0.0000     3.1000 </r>
       <r>    31.0454     0.0000     3.1000 </r>
       <r>    31.1730     0.0000     3.1000 </r>
       <r>    31.3005     0.0000     3.1000 </r>
       <r>    31.4280     0.0000     3.1000 </r>
       <r>    31.5556     0.0000     3.1000 </r>
       <r>    31.6831     0.0000     3.1000 </r>
       <r>    31.8106     0.0000     3.1000 </r>
       <r>    31.9382     0.0004     3.1000 </r>
       <r>    32.0657     0.0511     3.1066 </r>
       <r>    32.1932     0.4314     3.1616 </r>
       <r>    32.3208     0.2871     3.1982 </r>
       <r>    32.4483     0.0140     3.2000 </r>
       <r>    32.5758     0.0000     3.2000 </r>
       <r>    32.7034     0.0000     3.2000 </r>
       <r>    32.8309     0.0000     3.2000 </r>
       <r>    32.9584     0.0000     3.2000 </r>
       <r>    33.0860     0.0000     3.2000 </r>
       <r>    33.2135     0.0000     3.2000 </r>
       <r>    33.3410     0.0000     3.2000 </r>
       <r>    33.4686     0.0000     3.2000 </r>
       <r>    33.5961     0.0000     3.2000 </r>
       <r>    33.7237     0.0000     3.2000 </r>
       <r>    33.8512     0.0000     3.2000 </r>
       <r>    33.9787     0.0000     3.2000 </r>
       <r>    34.1063     0.0000     3.2000 </r>
       <r>    34.2338     0.0000     3.2000 </r>
       <r>    34.3613     0.0000     3.2000 </r>
       <r>    34.4889     0.0000     3.2000 </r>
       <r>    34.6164     0.0000     3.2000 </r>
       <r>    34.7439     0.0000     3.2000 </r>
       <r>    34.8715     0.0020     3.2003 </r>
       <r>    34.9990     0.1231     3.2160 </r>
       <r>    35.1265     0.4945     3.2790 </r>
       <r>    35.2541     0.1610     3.2995 </r>
       <r>    35.3816     0.0035     3.3000 </r>
       <r>    35.5091     0.0000     3.3000 </r>
       <r>    35.6367     0.0000     3.3000 </r>
       <r>    35.7642     0.0000     3.3000 </r>
       <r>    35.8917     0.0000     3.3000 </r>
       <r>    36.0193     0.0000     3.3000 </r>
       <r>    36.1468     0.0000     3.3000 </r>
       <r>    36.2743     0.0000     3.3000 </r>
       <r>    36.4019     0.0000     3.3000 </r>
       <r>    36.5294     0.0000     3.3000 </r>
       <r>    36.6569     0.0000     3.3000 </r>
       <r>    36.7845     0.0000     3.3000 </r>
       <r>    36.9120     0.0000     3.3000 </r>
       <r>    37.0395     0.0000     3.3000 </r>
       <r>    37.1671     0.0000     3.3000 </r>
       <r>    37.2946     0.0000     3.3000 </r>
       <r>    37.4222     0.0000     3.3000 </r>
       <r>    37.5497     0.0000     3.3000 </r>
       <r>    37.6772     0.0000     3.3000 </r>
       <r>    37.8048     0.0013     3.3002 </r>
       <r>    37.9323     0.0991     3.3128 </r>
       <r>    38.0598     0.4860     3.3748 </r>
       <r>    38.1874     0.1924     3.3993 </r>
       <r>    38.3149     0.0053     3.4000 </r>
       <r>    38.4424     0.0000     3.4000 </r>
       <r>    38.5700     0.0000     3.4000 </r>
       <r>    38.6975     0.0000     3.4000 </r>
       <r>    38.8250     0.0000     3.4000 </r>
       <r>    38.9526     0.0000     3.4000 </r>
       <r>    39.0801     0.0000     3.4000 </r>
       <r>    39.2076     0.0000     3.4000 </r>
       <r>    39.3352     0.0000     3.4000 </r>
       <r>    39.4627     0.0000     3.4000 </r>
       <r>    39.5902     0.0000     3.4000 </r>
       <r>    39.7178     0.0000     3.4000 </r>
       <r>    39.8453     0.0000     3.4000 </r>
       <r>    39.9728     0.0000     3.4000 </r>
       <r>    40.1004     0.0000     3.4000 </r>
       <r>    40.2279     0.0000     3.4000 </r>
       <r>    40.3554     0.0000     3.4000 </r>
       <r>    40.4830     0.0000     3.4000 </r>
       <r>    40.6105     0.0000     3.4000 </r>
       <r>    40.7380     0.0000     3.4000 </r>
       <r>    40.8656     0.0158     3.4020 </r>
       <r>    40.9931     0.3003     3.4403 </r>
       <r>    41.1207     0.4212     3.4940 </r>
       <r>    41.2482     0.0464     3.5000 </r>
       <r>    41.3757     0.0003     3.5000 </r>
       <r>    41.5033     0.0000     3.5000 </r>
       <r>    41.6308     0.0000     3.5000 </r>
       <r>    41.7583     0.0000     3.5000 </r>
       <r>    41.8859     0.0000     3.5000 </r>
       <r>    42.0134     0.0000     3.5000 </r>
       <r>    42.1409     0.0000     3.5000 </r>
       <r>    42.2685     0.0000     3.5000 </r>
       <r>    42.3960     0.0000     3.5000 </r>
       <r>    42.5235     0.0000     3.5000 </r>
       <r>    42.6511     0.0000     3.5000 </r>
       <r>    42.7786     0.0000     3.5000 </r>
       <r>    42.9061     0.0000     3.5000 </r>
       <r>    43.0337     0.0000     3.5000 </r>
       <r>    43.1612     0.0000     3.5000 </r>
       <r>    43.2887     0.0000     3.5000 </r>
       <r>    43.4163     0.0000     3.5000 </r>
       <r>    43.5438     0.0000     3.5000 </r>
       <r>    43.6713     0.0017     3.5002 </r>
       <r>    43.7989     0.1142     3.5148 </r>
       <r>    43.9264     0.4923     3.5776 </r>
       <r>    44.0539     0.1717     3.5995 </r>
       <r>    44.1815     0.0041     3.6000 </r>
       <r>    44.3090     0.0000     3.6000 </r>
       <r>    44.4366     0.0000     3.6000 </r>
       <r>    44.5641     0.0000     3.6000 </r>
       <r>    44.6916     0.0000     3.6000 </r>
       <r>    44.8192     0.0000     3.6000 </r>
       <r>    44.9467     0.0000     3.6000 </r>
       <r>    45.0742     0.0000     3.6000 </r>
       <r>    45.2018     0.0000     3.6000 </r>
       <r>    45.3293     0.0000     3.6000 </r>
       <r>    45.4568     0.0000     3.6000 </r>
       <r>    45.5844     0.0000     3.6000 </r>
       <r>    45.7119     0.0000     3.6000 </r>
       <r>    45.8394     0.0000     3.6000 </r>
       <r>    45.9670     0.0000     3.6000 </r>
       <r>    46.0945     0.0000     3.6000 </r>
       <r>    46.2220     0.0001     3.6000 </r>
       <r>    46.3496     0.0238     3.6030 </r>
       <r>    46.4771     0.3462     3.6472 </r>
       <r>    46.6046     0.3815     3.6958 </r>
       <r>    46.7322     0.0324     3.7000 </r>
       <r>    46.8597     0.0002     3.7000 </r>
       <r>    46.9872     0.0000     3.7000 </r>
       <r>    47.1148     0.0000     3.7000 </r>
       <r>    47.2423     0.0000     3.7000 </r>
       <r>    47.3698     0.0000     3.7000 </r>
       <r>    47.4974     0.0000     3.7000 </r>
       <r>    47.6249     0.0000     3.7000 </r>
       <r>    47.7524     0.0000     3.7000 </r>
       <r>    47.8800     0.0000     3.7000 </r>
       <r>    48.0075     0.0000     3.7000 </r>
       <r>    48.1351     0.0000     3.7000 </r>
       <r>    48.2626     0.0000     3.7000 </r>
       <r>    48.3901     0.0136     3.7017 </r>
       <r>    48.5177     0.2838     3.7379 </r>
       <r>    48.6452     0.4339     3.7933 </r>
       <r>    48.7727     0.0524     3.8000 </r>
       <r>    48.9003     0.0004     3.8000 </r>
       <r>    49.0278     0.0000     3.8000 </r>
       <r>    49.1553     0.0000     3.8000 </r>
       <r>    49.2829     0.0000     3.8000 </r>
       <r>    49.4104     0.0000     3.8000 </r>
       <r>    49.5379     0.0006     3.8001 </r>
       <r>    49.6655     0.0647     3.8083 </r>
       <r>    49.7930     0.4544     3.8663 </r>
       <r>    49.9205     0.2548     3.8988 </r>
       <r>    50.0481     0.0771     3.9086 </r>
       <r>    50.1756     0.4574     3.9669 </r>
       <r>    50.3031     0.2494     3.9988 </r>
       <r>    50.4307     0.0098     4.0000 </r>
       <r>    50.5582     0.0000     4.0000 </r>
       <r>    50.6857     0.0000     4.0000 </r>
       <r>    50.8133     0.0000     4.0000 </r>
       <r>    50.9408     0.0000     4.0000 </r>
       <r>    51.0683     0.0000     4.0000 </r>
       <r>    51.1959     0.0000     4.0000 </r>
       <r>    51.3234     0.0000     4.0000 </r>
       <r>    51.4509     0.0000     4.0000 </r>
       <r>    51.5785     0.0000     4.0000 </r>
       <r>    51.7060     0.0000     4.0000 </r>
       <r>    51.8336     0.0000     4.0000 </r>
       <r>    51.9611     0.0000     4.0000 </r>
       <r>    52.0886     0.0000     4.0000 </r>
       <r>    52.2162     0.0000     4.0000 </r>
       <r>    52.3437     0.0000     4.0000 </r>
       <r>    52.4712     0.0000     4.0000 </r>
       <r>    52.5988     0.0000     4.0000 </r>
       <r>    52.7263     0.0000     4.0000 </r>
       <r>    52.8538     0.0000     4.0000 </r>
       <r>    52.9814     0.0000     4.0000 </r>
       <r>    53.1089     0.0000     4.0000 </r>
       <r>    53.2364     0.0000     4.0000 </r>
       <r>    53.3640     0.0000     4.0000 </r>
       <r>    53.4915     0.0000     4.0000 </r>
       <r>    53.6190     0.0000     4.0000 </r>
       <r>    53.7466     0.0000     4.0000 </r>
       <r>    53.8741     0.0000     4.0000 </r>
       <r>    54.0016     0.0000     4.0000 </r>
       <r>    54.1292     0.0000     4.0000 </r>
       <r>    54.2567     0.0000     4.0000 </r>
       <r>    54.3842     0.0000     4.0000 </r>
       <r>    54.5118     0.0000     4.0000 </r>
       <r>    54.6393     0.0000     4.0000 </r>
       <r>    54.7668     0.0000     4.0000 </r>
       <r>    54.8944     0.0000     4.0000 </r>
       <r>    55.0219     0.0000     4.0000 </r>
       <r>    55.1494     0.0000     4.0000 </r>
       <r>    55.2770     0.0000     4.0000 </r>
       <r>    55.4045     0.0000     4.0000 </r>
       <r>    55.5321     0.0000     4.0000 </r>
       <r>    55.6596     0.0000     4.0000 </r>
       <r>    55.7871     0.0000     4.0000 </r>
       <r>    55.9147     0.0000     4.0000 </r>
       <r>    56.0422     0.0000     4.0000 </r>
       <r>    56.1697     0.0001     4.0000 </r>
       <r>    56.2973     0.0287     4.0037 </r>
       <r>    56.4248     0.5197     4.0700 </r>
       <r>    56.5523     0.8715     4.1811 </r>
       <r>    56.6799     0.2929     4.2185 </r>
       <r>    56.8074     0.9166     4.3354 </r>
       <r>    56.9349     0.4870     4.3975 </r>
       <r>    57.0625     0.0301     4.4013 </r>
       <r>    57.1900     0.2550     4.4338 </r>
       <r>    57.3175     0.4539     4.4917 </r>
       <r>    57.4451     0.0643     4.4999 </r>
       <r>    57.5726     0.0013     4.5001 </r>
       <r>    57.7001     0.1059     4.5136 </r>
       <r>    57.8277     0.8701     4.6246 </r>
       <r>    57.9552     0.5646     4.6966 </r>
       <r>    58.0827     0.0268     4.7000 </r>
       <r>    58.2103     0.0001     4.7000 </r>
       <r>    58.3378     0.0074     4.7009 </r>
       <r>    58.4653     0.2226     4.7293 </r>
       <r>    58.5929     0.4727     4.7896 </r>
       <r>    58.7204     0.0806     4.7999 </r>
       <r>    58.8479     0.0009     4.8000 </r>
       <r>    58.9755     0.0000     4.8000 </r>
       <r>    59.1030     0.0024     4.8003 </r>
       <r>    59.2306     0.1332     4.8173 </r>
       <r>    59.3581     0.4959     4.8805 </r>
       <r>    59.4856     0.1515     4.8998 </r>
       <r>    59.6132     0.1212     4.9153 </r>
       <r>    59.7407     0.4934     4.9782 </r>
       <r>    59.8682     0.1669     4.9995 </r>
       <r>    59.9958     0.0077     5.0005 </r>
       <r>    60.1233     0.1681     5.0219 </r>
       <r>    60.2508     0.4932     5.0848 </r>
       <r>    60.3784     0.1171     5.0998 </r>
       <r>    60.5059     0.0018     5.1000 </r>
       <r>    60.6334     0.0000     5.1000 </r>
       <r>    60.7610     0.0000     5.1000 </r>
       <r>    60.8885     0.0003     5.1000 </r>
       <r>    61.0160     0.0453     5.1058 </r>
       <r>    61.1436     0.4188     5.1592 </r>
       <r>    61.2711     0.3034     5.1979 </r>
       <r>    61.3986     0.0189     5.2003 </r>
       <r>    61.5262     0.2228     5.2287 </r>
       <r>    61.6537     1.3364     5.3992 </r>
       <r>    61.7812     1.0287     5.5304 </r>
       <r>    61.9088     0.5071     5.5951 </r>
       <r>    62.0363     0.5593     5.6664 </r>
       <r>    62.1638     0.9102     5.7825 </r>
       <r>    62.2914     0.1741     5.8047 </r>
       <r>    62.4189     0.4000     5.8557 </r>
       <r>    62.5464     0.3273     5.8974 </r>
       <r>    62.6740     0.0235     5.9004 </r>
       <r>    62.8015     0.1578     5.9205 </r>
       <r>    62.9291     0.5039     5.9848 </r>
       <r>    63.0566     0.3658     6.0315 </r>
       <r>    63.1841     0.4658     6.0909 </r>
       <r>    63.3117     0.1371     6.1084 </r>
       <r>    63.4392     0.4701     6.1683 </r>
       <r>    63.5667     0.5371     6.2368 </r>
       <r>    63.6943     0.4432     6.2933 </r>
       <r>    63.8218     0.0525     6.3000 </r>
       <r>    63.9493     0.0836     6.3107 </r>
       <r>    64.0769     0.8166     6.4148 </r>
       <r>    64.2044     0.6310     6.4953 </r>
       <r>    64.3319     0.0367     6.5000 </r>
       <r>    64.4595     0.0001     6.5000 </r>
       <r>    64.5870     0.0007     6.5001 </r>
       <r>    64.7145     0.0720     6.5093 </r>
       <r>    64.8421     0.4724     6.5695 </r>
       <r>    64.9696     0.4766     6.6303 </r>
       <r>    65.0971     0.4732     6.6906 </r>
       <r>    65.2247     0.0726     6.6999 </r>
       <r>    65.3522     0.0007     6.7000 </r>
       <r>    65.4797     0.0044     6.7006 </r>
       <r>    65.6073     0.1895     6.7247 </r>
       <r>    65.7348     0.7575     6.8213 </r>
       <r>    65.8623     0.5801     6.8953 </r>
       <r>    65.9899     0.4105     6.9477 </r>
       <r>    66.1174     0.3826     6.9965 </r>
       <r>    66.2449     0.2021     7.0223 </r>
       <r>    66.3725     0.5264     7.0894 </r>
       <r>    66.5000     0.5494     7.1595 </r>
       <r>    66.6276     0.7733     7.2581 </r>
       <r>    66.7551     0.3140     7.2981 </r>
       <r>    66.8826     0.0146     7.3000 </r>
       <r>    67.0102     0.0000     7.3000 </r>
       <r>    67.1377     0.0000     7.3000 </r>
       <r>    67.2652     0.0000     7.3000 </r>
       <r>    67.3928     0.0000     7.3000 </r>
       <r>    67.5203     0.0000     7.3000 </r>
       <r>    67.6478     0.0000     7.3000 </r>
       <r>    67.7754     0.0000     7.3000 </r>
       <r>    67.9029     0.0000     7.3000 </r>
       <r>    68.0304     0.0000     7.3000 </r>
       <r>    68.1580     0.0000     7.3000 </r>
       <r>    68.2855     0.0032     7.3004 </r>
       <r>    68.4130     0.1539     7.3200 </r>
       <r>    68.5406     0.4955     7.3832 </r>
       <r>    68.6681     0.1292     7.3997 </r>
       <r>    68.7956     0.0022     7.4000 </r>
       <r>    68.9232     0.0000     7.4000 </r>
       <r>    69.0507     0.0000     7.4000 </r>
       <r>    69.1782     0.0000     7.4000 </r>
       <r>    69.3058     0.0000     7.4000 </r>
       <r>    69.4333     0.0047     7.4006 </r>
       <r>    69.5608     0.1829     7.4239 </r>
       <r>    69.6884     0.4893     7.4863 </r>
       <r>    69.8159     0.1058     7.4998 </r>
       <r>    69.9434     0.0015     7.5000 </r>
       <r>    70.0710     0.0000     7.5000 </r>
       <r>    70.1985     0.0000     7.5000 </r>
       <r>    70.3261     0.0000     7.5000 </r>
       <r>    70.4536     0.0000     7.5000 </r>
       <r>    70.5811     0.0076     7.5010 </r>
       <r>    70.7087     0.2256     7.5297 </r>
       <r>    70.8362     0.4711     7.5898 </r>
       <r>    70.9637     0.0789     7.5999 </r>
       <r>    71.0913     0.0008     7.6000 </r>
       <r>    71.2188     0.0000     7.6000 </r>
       <r>    71.3463     0.0000     7.6000 </r>
       <r>    71.4739     0.0000     7.6000 </r>
       <r>    71.6014     0.0000     7.6000 </r>
       <r>    71.7289     0.0001     7.6000 </r>
       <r>    71.8565     0.0225     7.6029 </r>
       <r>    71.9840     0.3398     7.6462 </r>
       <r>    72.1115     0.3874     7.6956 </r>
       <r>    72.2391     0.0341     7.7000 </r>
       <r>    72.3666     0.0002     7.7000 </r>
       <r>    72.4941     0.0000     7.7000 </r>
       <r>    72.6217     0.0000     7.7000 </r>
       <r>    72.7492     0.0000     7.7000 </r>
       <r>    72.8767     0.0000     7.7000 </r>
       <r>    73.0043     0.0018     7.7002 </r>
       <r>    73.1318     0.1224     7.7158 </r>
       <r>    73.2593     0.6711     7.8014 </r>
       <r>    73.3869     0.6578     7.8853 </r>
       <r>    73.5144     0.1135     7.8998 </r>
       <r>    73.6419     0.0016     7.9000 </r>
       <r>    73.7695     0.0000     7.9000 </r>
       <r>    73.8970     0.0000     7.9000 </r>
       <r>    74.0246     0.0000     7.9000 </r>
       <r>    74.1521     0.0000     7.9000 </r>
       <r>    74.2796     0.0000     7.9000 </r>
       <r>    74.4072     0.0000     7.9000 </r>
       <r>    74.5347     0.0015     7.9002 </r>
       <r>    74.6622     0.1189     7.9154 </r>
       <r>    74.7898     0.7773     8.0145 </r>
       <r>    74.9173     0.6147     8.0929 </r>
       <r>    75.0448     0.0554     8.1000 </r>
       <r>    75.1724     0.0004     8.1000 </r>
       <r>    75.2999     0.0000     8.1000 </r>
       <r>    75.4274     0.0000     8.1000 </r>
       <r>    75.5550     0.0000     8.1000 </r>
       <r>    75.6825     0.0005     8.1001 </r>
       <r>    75.8100     0.0577     8.1074 </r>
       <r>    75.9376     0.4435     8.1640 </r>
       <r>    76.0651     0.2704     8.1985 </r>
       <r>    76.1926     0.0120     8.2000 </r>
       <r>    76.3202     0.0000     8.2000 </r>
       <r>    76.4477     0.0000     8.2000 </r>
       <r>    76.5752     0.0000     8.2000 </r>
       <r>    76.7028     0.0000     8.2000 </r>
       <r>    76.8303     0.0000     8.2000 </r>
       <r>    76.9578     0.0007     8.2001 </r>
       <r>    77.0854     0.0701     8.2090 </r>
       <r>    77.2129     0.4615     8.2679 </r>
       <r>    77.3404     0.2428     8.2989 </r>
       <r>    77.4680     0.0439     8.3045 </r>
       <r>    77.5955     0.3894     8.3541 </r>
       <r>    77.7231     0.3505     8.3988 </r>
       <r>    77.8506     0.2997     8.4370 </r>
       <r>    77.9781     0.4385     8.4930 </r>
       <r>    78.1057     0.0548     8.4999 </r>
       <r>    78.2332     0.0004     8.5000 </r>
       <r>    78.3607     0.0000     8.5000 </r>
       <r>    78.4883     0.0000     8.5000 </r>
       <r>    78.6158     0.0000     8.5000 </r>
       <r>    78.7433     0.0000     8.5000 </r>
       <r>    78.8709     0.0000     8.5000 </r>
       <r>    78.9984     0.0000     8.5000 </r>
       <r>    79.1259     0.0000     8.5000 </r>
       <r>    79.2535     0.0000     8.5000 </r>
       <r>    79.3810     0.0000     8.5000 </r>
       <r>    79.5085     0.0000     8.5000 </r>
       <r>    79.6361     0.0000     8.5000 </r>
       <r>    79.7636     0.0000     8.5000 </r>
       <r>    79.8911     0.0000     8.5000 </r>
       <r>    80.0187     0.0000     8.5000 </r>
       <r>    80.1462     0.0000     8.5000 </r>
       <r>    80.2737     0.0000     8.5000 </r>
       <r>    80.4013     0.0014     8.5002 </r>
       <r>    80.5288     0.1069     8.5138 </r>
       <r>    80.6563     0.6642     8.5985 </r>
       <r>    80.7839     0.6786     8.6851 </r>
       <r>    80.9114     0.1155     8.6998 </r>
       <r>    81.0389     0.0016     8.7000 </r>
       <r>    81.1665     0.0000     8.7000 </r>
       <r>    81.2940     0.0000     8.7000 </r>
       <r>    81.4216     0.0000     8.7000 </r>
       <r>    81.5491     0.0000     8.7000 </r>
       <r>    81.6766     0.0000     8.7000 </r>
       <r>    81.8042     0.0000     8.7000 </r>
       <r>    81.9317     0.0000     8.7000 </r>
       <r>    82.0592     0.0000     8.7000 </r>
       <r>    82.1868     0.0000     8.7000 </r>
       <r>    82.3143     0.0000     8.7000 </r>
       <r>    82.4418     0.0000     8.7000 </r>
       <r>    82.5694     0.0000     8.7000 </r>
       <r>    82.6969     0.0000     8.7000 </r>
       <r>    82.8244     0.0000     8.7000 </r>
       <r>    82.9520     0.0000     8.7000 </r>
       <r>    83.0795     0.0000     8.7000 </r>
       <r>    83.2070     0.0000     8.7000 </r>
       <r>    83.3346     0.0000     8.7000 </r>
       <r>    83.4621     0.0000     8.7000 </r>
       <r>    83.5896     0.0000     8.7000 </r>
       <r>    83.7172     0.0000     8.7000 </r>
       <r>    83.8447     0.0000     8.7000 </r>
       <r>    83.9722     0.0085     8.7011 </r>
       <r>    84.0998     0.2354     8.7311 </r>
       <r>    84.2273     0.4657     8.7905 </r>
       <r>    84.3548     0.0737     8.7999 </r>
       <r>    84.4824     0.0007     8.8000 </r>
       <r>    84.6099     0.0000     8.8000 </r>
       <r>    84.7375     0.0000     8.8000 </r>
       <r>    84.8650     0.0000     8.8000 </r>
       <r>    84.9925     0.0000     8.8000 </r>
       <r>    85.1201     0.0000     8.8000 </r>
       <r>    85.2476     0.0000     8.8000 </r>
       <r>    85.3751     0.0000     8.8000 </r>
       <r>    85.5027     0.0000     8.8000 </r>
       <r>    85.6302     0.0000     8.8000 </r>
       <r>    85.7577     0.0055     8.8007 </r>
       <r>    85.8853     0.1954     8.8256 </r>
       <r>    86.0128     0.4849     8.8875 </r>
       <r>    86.1403     0.0971     8.8998 </r>
       <r>    86.2679     0.0012     8.9000 </r>
       <r>    86.3954     0.0000     8.9000 </r>
       <r>    86.5229     0.0000     8.9000 </r>
       <r>    86.6505     0.0000     8.9000 </r>
       <r>    86.7780     0.0000     8.9000 </r>
       <r>    86.9055     0.0000     8.9000 </r>
       <r>    87.0331     0.0000     8.9000 </r>
       <r>    87.1606     0.0000     8.9000 </r>
       <r>    87.2881     0.0000     8.9000 </r>
       <r>    87.4157     0.0000     8.9000 </r>
       <r>    87.5432     0.0017     8.9002 </r>
       <r>    87.6707     0.1168     8.9151 </r>
       <r>    87.7983     0.6458     8.9975 </r>
       <r>    87.9258     0.6680     9.0827 </r>
       <r>    88.0533     0.1336     9.0997 </r>
       <r>    88.1809     0.0022     9.1000 </r>
       <r>    88.3084     0.0000     9.1000 </r>
       <r>    88.4360     0.0000     9.1000 </r>
       <r>    88.5635     0.0000     9.1000 </r>
       <r>    88.6910     0.0000     9.1000 </r>
       <r>    88.8186     0.0000     9.1000 </r>
       <r>    88.9461     0.0000     9.1000 </r>
       <r>    89.0736     0.0000     9.1000 </r>
       <r>    89.2012     0.0000     9.1000 </r>
       <r>    89.3287     0.0000     9.1000 </r>
       <r>    89.4562     0.0000     9.1000 </r>
       <r>    89.5838     0.0000     9.1000 </r>
       <r>    89.7113     0.0000     9.1000 </r>
       <r>    89.8388     0.0000     9.1000 </r>
       <r>    89.9664     0.0066     9.1008 </r>
       <r>    90.0939     0.2121     9.1279 </r>
       <r>    90.2214     0.4783     9.1889 </r>
       <r>    90.3490     0.1501     9.2080 </r>
       <r>    90.4765     0.4537     9.2659 </r>
       <r>    90.6040     0.2568     9.2987 </r>
       <r>    90.7316     0.0105     9.3000 </r>
       <r>    90.8591     0.0000     9.3000 </r>
       <r>    90.9866     0.0000     9.3000 </r>
       <r>    91.1142     0.0000     9.3000 </r>
       <r>    91.2417     0.0000     9.3000 </r>
       <r>    91.3692     0.0000     9.3000 </r>
       <r>    91.4968     0.0000     9.3000 </r>
       <r>    91.6243     0.0000     9.3000 </r>
       <r>    91.7518     0.0000     9.3000 </r>
       <r>    91.8794     0.0000     9.3000 </r>
       <r>    92.0069     0.0000     9.3000 </r>
       <r>    92.1345     0.0000     9.3000 </r>
       <r>    92.2620     0.0005     9.3001 </r>
       <r>    92.3895     0.0624     9.3080 </r>
       <r>    92.5171     0.4510     9.3655 </r>
       <r>    92.6446     0.2594     9.3986 </r>
       <r>    92.7721     0.0108     9.4000 </r>
       <r>    92.8997     0.0000     9.4000 </r>
       <r>    93.0272     0.0000     9.4000 </r>
       <r>    93.1547     0.0000     9.4000 </r>
       <r>    93.2823     0.0000     9.4000 </r>
       <r>    93.4098     0.0004     9.4001 </r>
       <r>    93.5373     0.0571     9.4073 </r>
       <r>    93.6649     0.4425     9.4638 </r>
       <r>    93.7924     0.2719     9.4984 </r>
       <r>    93.9199     0.0122     9.5000 </r>
       <r>    94.0475     0.0000     9.5000 </r>
       <r>    94.1750     0.0000     9.5000 </r>
       <r>    94.3025     0.0000     9.5000 </r>
       <r>    94.4301     0.0000     9.5000 </r>
       <r>    94.5576     0.0000     9.5000 </r>
       <r>    94.6851     0.0000     9.5000 </r>
       <r>    94.8127     0.0000     9.5000 </r>
       <r>    94.9402     0.0000     9.5000 </r>
       <r>    95.0677     0.0019     9.5002 </r>
       <r>    95.1953     0.1196     9.5155 </r>
       <r>    95.3228     0.4938     9.5785 </r>
       <r>    95.4503     0.1650     9.5995 </r>
       <r>    95.5779     0.0037     9.6000 </r>
       <r>    95.7054     0.0000     9.6000 </r>
       <r>    95.8330     0.0000     9.6000 </r>
       <r>    95.9605     0.0000     9.6000 </r>
       <r>    96.0880     0.0000     9.6000 </r>
       <r>    96.2156     0.0000     9.6000 </r>
       <r>    96.3431     0.0000     9.6000 </r>
       <r>    96.4706     0.0000     9.6000 </r>
       <r>    96.5982     0.0000     9.6000 </r>
       <r>    96.7257     0.0000     9.6000 </r>
       <r>    96.8532     0.0000     9.6000 </r>
       <r>    96.9808     0.0000     9.6000 </r>
       <r>    97.1083     0.0000     9.6000 </r>
       <r>    97.2358     0.0000     9.6000 </r>
       <r>    97.3634     0.0000     9.6000 </r>
       <r>    97.4909     0.0000     9.6000 </r>
       <r>    97.6184     0.0000     9.6000 </r>
       <r>    97.7460     0.0000     9.6000 </r>
       <r>    97.8735     0.0000     9.6000 </r>
       <r>    98.0010     0.0000     9.6000 </r>
       <r>    98.1286     0.0000     9.6000 </r>
       <r>    98.2561     0.0000     9.6000 </r>
       <r>    98.3836     0.0000     9.6000 </r>
       <r>    98.5112     0.0000     9.6000 </r>
       <r>    98.6387     0.0000     9.6000 </r>
       <r>    98.7662     0.0041     9.6005 </r>
       <r>    98.8938     0.2302     9.6299 </r>
       <r>    99.0213     0.9594     9.7522 </r>
       <r>    99.1488     0.3637     9.7986 </r>
       <r>    99.2764     0.0108     9.8000 </r>
       <r>    99.4039     0.0000     9.8000 </r>
       <r>    99.5315     0.0000     9.8000 </r>
       <r>    99.6590     0.0005     9.8001 </r>
       <r>    99.7865     0.0611     9.8079 </r>
       <r>    99.9141     0.4491     9.8651 </r>
       <r>   100.0416     0.2623     9.8986 </r>
       <r>   100.1691     0.0111     9.9000 </r>
       <r>   100.2967     0.0000     9.9000 </r>
       <r>   100.4242     0.0000     9.9000 </r>
       <r>   100.5517     0.0000     9.9000 </r>
       <r>   100.6793     0.0000     9.9000 </r>
       <r>   100.8068     0.0000     9.9000 </r>
       <r>   100.9343     0.0000     9.9000 </r>
       <r>   101.0619     0.0005     9.9001 </r>
       <r>   101.1894     0.0587     9.9076 </r>
       <r>   101.3169     0.4453     9.9643 </r>
       <r>   101.4445     0.2678     9.9985 </r>
       <r>   101.5720     0.0117    10.0000 </r>
       <r>   101.6995     0.0000    10.0000 </r>
       <r>   101.8271     0.0000    10.0000 </r>
       <r>   101.9546     0.0000    10.0000 </r>
       <r>   102.0821     0.0000    10.0000 </r>
       <r>   102.2097     0.0000    10.0000 </r>
       <r>   102.3372     0.0000    10.0000 </r>
       <r>   102.4647     0.0000    10.0000 </r>
       <r>   102.5923     0.0060    10.0008 </r>
       <r>   102.7198     0.2039    10.0268 </r>
       <r>   102.8473     0.4815    10.0882 </r>
       <r>   102.9749     0.0916    10.0999 </r>
       <r>   103.1024     0.0011    10.1000 </r>
       <r>   103.2300     0.0000    10.1000 </r>
       <r>   103.3575     0.0004    10.1000 </r>
       <r>   103.4850     0.0509    10.1065 </r>
       <r>   103.6126     0.4311    10.1615 </r>
       <r>   103.7401     0.2876    10.1982 </r>
       <r>   103.8676     0.0141    10.2000 </r>
       <r>   103.9952     0.0000    10.2000 </r>
       <r>   104.1227     0.0000    10.2000 </r>
       <r>   104.2502     0.0035    10.2004 </r>
       <r>   104.3778     0.1607    10.2209 </r>
       <r>   104.5053     0.4946    10.2840 </r>
       <r>   104.6328     0.1233    10.2997 </r>
       <r>   104.7604     0.0020    10.3000 </r>
       <r>   104.8879     0.0000    10.3000 </r>
       <r>   105.0154     0.0000    10.3000 </r>
       <r>   105.1430     0.0000    10.3000 </r>
       <r>   105.2705     0.0000    10.3000 </r>
       <r>   105.3980     0.0000    10.3000 </r>
       <r>   105.5256     0.0000    10.3000 </r>
       <r>   105.6531     0.0000    10.3000 </r>
       <r>   105.7806     0.0000    10.3000 </r>
       <r>   105.9082     0.0000    10.3000 </r>
       <r>   106.0357     0.0096    10.3012 </r>
       <r>   106.1632     0.2477    10.3328 </r>
       <r>   106.2908     0.4585    10.3913 </r>
       <r>   106.4183     0.0677    10.3999 </r>
       <r>   106.5458     0.0006    10.4000 </r>
       <r>   106.6734     0.0000    10.4000 </r>
       <r>   106.8009     0.0000    10.4000 </r>
       <r>   106.9285     0.0000    10.4000 </r>
       <r>   107.0560     0.0000    10.4000 </r>
       <r>   107.1835     0.0000    10.4000 </r>
       <r>   107.3111     0.0000    10.4000 </r>
       <r>   107.4386     0.0000    10.4000 </r>
       <r>   107.5661     0.0000    10.4000 </r>
       <r>   107.6937     0.0000    10.4000 </r>
       <r>   107.8212     0.0000    10.4000 </r>
       <r>   107.9487     0.0000    10.4000 </r>
       <r>   108.0763     0.0000    10.4000 </r>
       <r>   108.2038     0.0000    10.4000 </r>
       <r>   108.3313     0.0009    10.4001 </r>
       <r>   108.4589     0.0818    10.4105 </r>
       <r>   108.5864     0.4738    10.4710 </r>
       <r>   108.7139     0.2204    10.4991 </r>
       <r>   108.8415     0.0072    10.5000 </r>
       <r>   108.9690     0.0000    10.5000 </r>
       <r>   109.0965     0.0000    10.5000 </r>
       <r>   109.2241     0.0000    10.5000 </r>
       <r>   109.3516     0.0000    10.5000 </r>
       <r>   109.4791     0.0000    10.5000 </r>
       <r>   109.6067     0.0000    10.5000 </r>
       <r>   109.7342     0.0000    10.5000 </r>
       <r>   109.8617     0.0000    10.5000 </r>
       <r>   109.9893     0.0000    10.5000 </r>
       <r>   110.1168     0.0000    10.5000 </r>
       <r>   110.2443     0.0000    10.5000 </r>
       <r>   110.3719     0.0000    10.5000 </r>
       <r>   110.4994     0.0000    10.5000 </r>
       <r>   110.6270     0.0000    10.5000 </r>
       <r>   110.7545     0.0000    10.5000 </r>
       <r>   110.8820     0.0000    10.5000 </r>
       <r>   111.0096     0.0000    10.5000 </r>
       <r>   111.1371     0.0000    10.5000 </r>
       <r>   111.2646     0.0000    10.5000 </r>
       <r>   111.3922     0.0000    10.5000 </r>
       <r>   111.5197     0.0000    10.5000 </r>
       <r>   111.6472     0.0000    10.5000 </r>
       <r>   111.7748     0.0000    10.5000 </r>
       <r>   111.9023     0.0000    10.5000 </r>
       <r>   112.0298     0.0058    10.5007 </r>
       <r>   112.1574     0.2012    10.5264 </r>
       <r>   112.2849     0.4826    10.5880 </r>
       <r>   112.4124     0.0933    10.5999 </r>
       <r>   112.5400     0.0011    10.6000 </r>
       <r>   112.6675     0.0000    10.6000 </r>
       <r>   112.7950     0.0000    10.6000 </r>
       <r>   112.9226     0.0000    10.6000 </r>
       <r>   113.0501     0.0000    10.6000 </r>
       <r>   113.1776     0.0000    10.6000 </r>
       <r>   113.3052     0.0000    10.6000 </r>
       <r>   113.4327     0.0000    10.6000 </r>
       <r>   113.5602     0.0000    10.6000 </r>
       <r>   113.6878     0.0000    10.6000 </r>
       <r>   113.8153     0.0025    10.6003 </r>
       <r>   113.9428     0.1381    10.6179 </r>
       <r>   114.0704     0.4962    10.6812 </r>
       <r>   114.1979     0.1451    10.6997 </r>
       <r>   114.3255     0.0720    10.7089 </r>
       <r>   114.4530     0.4603    10.7676 </r>
       <r>   114.5805     0.2447    10.7988 </r>
       <r>   114.7081     0.0093    10.8000 </r>
[...]
        <r>  0.0124  0.0113  0.2422  0.2419  0.0000  0.0000  0.0000  0.0000  0.0000 </r>
       </set>
       <set comment="band 7">
        <r>  0.0363  0.0114  0.0277  1.2918  0.0000  0.0000  0.0000  0.0000  0.0000 </r>
       </set>
       <set comment="band 8">
        <r>  0.0210  0.5710  0.5626  0.0450  0.0000  0.0000  0.0000  0.0000  0.0000 </r>
       </set>
      </set>
      <set comment="kpoint 4">
       <set comment="band 1">
        <r>  0.4110  0.0000  0.0000  0.0016  0.0000  0.0000  0.0000  0.0000  0.0000 </r>
       </set>
       <set comment="band 2">
        <r>  0.3420  0.0000  0.0000  0.1464  0.0000  0.0000  0.0000  0.0000  0.0000 </r>
       </set>
       <set comment="band 3">
        <r>  0.1360  0.0000  0.0000  0.2515  0.0000  0.0000  0.0000  0.0000  0.0000 </r>
       </set>
       <set comment="band 4">
        <r>  0.0000  0.8487  0.0001  0.0000  0.0000  0.0000  0.0000  0.0000  0.0000 </r>
       </set>
       <set comment="band 5">
        <r>  0.0226  0.0001  0.0034  0.3498  0.0000  0.0000  0.0000  0.0000  0.0000 </r>
       </set>
       <set comment="band 6">
        <r>  0.1469  0.0182  0.3565  0.3432  0.0000  0.0000  0.0000  0.0000  0.0000 </r>
       </set>
       <set comment="band 7">
        <r>  0.0534  0.2560  0.3557  0.2774  0.0000  0.0000  0.0000  0.0000  0.0000 </r>
       </set>
       <set comment="band 8">
        <r>  0.0218  0.0743  0.5255  0.3686  0.0000  0.0000  0.0000  0.0000  0.0000 </r>
       </set>
      </set>
      <set comment="kpoint 5">
       <set comment="band 1">
        <r>  0.4106  0.0000  0.0000  0.0028  0.0000  0.0000  0.0000  0.0000  0.0000 </r>
       </set>
       <set comment="band 2">
        <r>  0.2798  0.0000  0.0000  0.1870  0.0000  0.0000  0.0000  0.0000  0.0000 </r>
       </set>
       <set comment="band 3">
        <r>  0.1955  0.0000  0.0000  0.1911  0.0000  0.0000  0.0000  0.0000  0.0000 </r>
       </set>
       <set comment="band 4">
        <r>  0.0000  0.7735  0.0784  0.0000  0.0000  0.0000  0.0000  0.0000  0.0000 </r>
       </set>
       <set comment="band 5">
        <r>  0.0187  0.0077  0.0691  0.3692  0.0000  0.0000  0.0000  0.0000  0.0000 </r>
       </set>
       <set comment="band 6">
        <r>  0.0341  0.0272  0.1653  0.0010  0.0000  0.0000  0.0000  0.0000  0.0000 </r>
       </set>
       <set comment="band 7">
        <r>  0.1132  0.1220  0.0257  0.1948  0.0000  0.0000  0.0000  0.0000  0.0000 </r>
       </set>
       <set comment="band 8">
        <r>  0.0299  0.1955  0.1796  0.0143  0.0000  0.0000  0.0000  0.0000  0.0000 </r>
       </set>
      </set>
      <set comment="kpoint 6">
       <set comment="band 1">
        <r>  0.4103  0.0000  0.0000  0.0039  0.0000  0.0000  0.0000  0.0000  0.0000 </r>
       </set>
       <set comment="band 2">
        <r>  0.2390  0.0000  0.0000  0.2064  0.0000  0.0000  0.0000  0.0000  0.0000 </r>
       </set>
       <set comment="band 3">
        <r>  0.2334  0.0000  0.0000  0.1484  0.0000  0.0000  0.0000  0.0000  0.0000 </r>
       </set>
       <set comment="band 4">
        <r>  0.0000  0.4157  0.4403  0.0000  0.0000  0.0000  0.0000  0.0000  0.0000 </r>
       </set>
       <set comment="band 5">
        <r>  0.0554  0.0315  0.0278  0.3092  0.0000  0.0000  0.0000  0.0000  0.0000 </r>
       </set>
       <set comment="band 6">
        <r>  0.1324  0.0625  0.0085  0.5948  0.0000  0.0000  0.0000  0.0000  0.0000 </r>
       </set>
       <set comment="band 7">
        <r>  0.0219  0.0375  0.1914  0.0210  0.0000  0.0000  0.0000  0.0000  0.0000 </r>
       </set>
       <set comment="band 8">
        <r>  0.0020  0.0090  0.0703  0.0006  0.0000  0.0000  0.0000  0.0000  0.0000 </r>
       </set>
      </set>
      <set comment="kpoint 7">
       <set comment="band 1">
        <r>  0.4095  0.0000  0.0000  0.0045  0.0000  0.0000  0.0000  0.0000  0.0000 </r>
       </set>
       <set comment="band 2">
        <r>  0.2139  0.0000  0.0000  0.2345  0.0000  0.0000  0.0000  0.0000  0.0000 </r>
       </set>
       <set comment="band 3">
        <r>  0.2584  0.0000  0.0000  0.1250  0.0000  0.0000  0.0000  0.0000  0.0000 </r>
       </set>
       <set comment="band 4">
        <r>  0.0000  0.2050  0.6597  0.0000  0.0000  0.0000  0.0000  0.0000  0.0000 </r>
       </set>
       <set comment="band 5">
        <r>  0.0353  0.0017  0.0021  0.4538  0.0000  0.0000  0.0000  0.0000  0.0000 </r>
       </set>
       <set comment="band 6">
        <r>  0.0289  0.0498  0.3516  0.0905  0.0000  0.0000  0.0000  0.0000  0.0000 </r>
       </set>
       <set comment="band 7">
        <r>  0.0227  0.0631  0.3621  0.0031  0.0000  0.0000  0.0000  0.0000  0.0000 </r>
       </set>
       <set comment="band 8">
        <r>  0.0019  0.0561  0.0616  0.0568  0.0000  0.0000  0.0000  0.0000  0.0000 </r>
       </set>
      </set>
      <set comment="kpoint 8">
       <set comment="band 1">
        <r>  0.4093  0.0000  0.0000  0.0063  0.0000  0.0000  0.0000  0.0000  0.0000 </r>
       </set>
       <set comment="band 2">
        <r>  0.1974  0.0000  0.0000  0.2307  0.0000  0.0000  0.0000  0.0000  0.0000 </r>
       </set>
       <set comment="band 3">
        <r>  0.2750  0.0000  0.0001  0.1138  0.0000  0.0000  0.0000  0.0000  0.0000 </r>
       </set>
       <set comment="band 4">
        <r>  0.0000  0.4905  0.3814  0.0000  0.0000  0.0000  0.0000  0.0000  0.0000 </r>
       </set>
       <set comment="band 5">
        <r>  0.0145  0.0624  0.0795  0.9480  0.0000  0.0000  0.0000  0.0000  0.0000 </r>
       </set>
       <set comment="band 6">
        <r>  0.0739  0.0439  0.0344  0.2066  0.0000  0.0000  0.0000  0.0000  0.0000 </r>
       </set>
       <set comment="band 7">
        <r>  0.0027  1.0919  0.0095  0.1062  0.0000  0.0000  0.0000  0.0000  0.0000 </r>
       </set>
       <set comment="band 8">
        <r>  0.1263  0.0611  0.3303  0.1151  0.0000  0.0000  0.0000  0.0000  0.0000 </r>
       </set>
      </set>
      <set comment="kpoint 9">
       <set comment="band 1">
        <r>  0.4094  0.0000  0.0000  0.0084  0.0000  0.0000  0.0000  0.0000  0.0000 </r>
       </set>
       <set comment="band 2">
        <r>  0.1862  0.0000  0.0000  0.2232  0.0000  0.0000  0.0000  0.0000  0.0000 </r>
       </set>
       <set comment="band 3">
        <r>  0.2874  0.0000  0.0000  0.1081  0.0000  0.0000  0.0000  0.0000  0.0000 </r>
       </set>
       <set comment="band 4">
        <r>  0.0000  0.6326  0.2479  0.0000  0.0000  0.0000  0.0000  0.0000  0.0000 </r>
       </set>
       <set comment="band 5">
        <r>  0.0017  0.0075  0.4917  0.1512  0.0000  0.0000  0.0000  0.0000  0.0000 </r>
       </set>
       <set comment="band 6">
        <r>  0.0973  0.0200  0.0580  0.0007  0.0000  0.0000  0.0000  0.0000  0.0000 </r>
       </set>
       <set comment="band 7">
        <r>  0.1225  0.1093  0.1410  0.1475  0.0000  0.0000  0.0000  0.0000  0.0000 </r>
       </set>
       <set comment="band 8">
        <r>  0.0476  0.5763  0.0222  0.0543  0.0000  0.0000  0.0000  0.0000  0.0000 </r>
       </set>
      </set>
      <set comment="kpoint 10">
       <set comment="band 1">
        <r>  0.4100  0.0000  0.0000  0.0107  0.0000  0.0000  0.0000  0.0000  0.0000 </r>
       </set>
       <set comment="band 2">
        <r>  0.1779  0.0000  0.0000  0.2138  0.0000  0.0000  0.0000  0.0000  0.0000 </r>
       </set>
       <set comment="band 3">
        <r>  0.2979  0.0001  0.0000  0.1045  0.0000  0.0000  0.0000  0.0000  0.0000 </r>
       </set>
       <set comment="band 4">
        <r>  0.0000  0.2682  0.6232  0.0000  0.0000  0.0000  0.0000  0.0000  0.0000 </r>
       </set>
       <set comment="band 5">
        <r>  0.0113  0.0632  0.0686  0.4338  0.0000  0.0000  0.0000  0.0000  0.0000 </r>
       </set>
       <set comment="band 6">
        <r>  0.0003  0.0315  0.3498  0.4625  0.0000  0.0000  0.0000  0.0000  0.0000 </r>
       </set>
       <set comment="band 7">
        <r>  0.0438  0.0244  0.0358  0.0633  0.0000  0.0000  0.0000  0.0000  0.0000 </r>
       </set>
       <set comment="band 8">
        <r>  0.1669  0.0305  0.1043  0.1738  0.0000  0.0000  0.0000  0.0000  0.0000 </r>
       </set>
      </set>
      <set comment="kpoint 11">
       <set comment="band 1">
        <r>  0.4114  0.0000  0.0000  0.0132  0.0000  0.0000  0.0000  0.0000  0.0000 </r>
       </set>
       <set comment="band 2">
        <r>  0.1711  0.0000  0.0000  0.2039  0.0000  0.0000  0.0000  0.0000  0.0000 </r>
       </set>
       <set comment="band 3">
        <r>  0.3064  0.0003  0.0001  0.1030  0.0000  0.0000  0.0000  0.0000  0.0000 </r>
       </set>
       <set comment="band 4">
        <r>  0.0000  0.2239  0.6747  0.0000  0.0000  0.0000  0.0000  0.0000  0.0000 </r>
       </set>
       <set comment="band 5">
        <r>  0.0080  0.0017  0.6756  0.0621  0.0000  0.0000  0.0000  0.0000  0.0000 </r>
       </set>
       <set comment="band 6">
        <r>  0.1082  0.2714  0.0692  0.4113  0.0000  0.0000  0.0000  0.0000  0.0000 </r>
       </set>
       <set comment="band 7">
        <r>  0.0263  0.0820  0.0681  0.1547  0.0000  0.0000  0.0000  0.0000  0.0000 </r>
       </set>
       <set comment="band 8">
        <r>  0.1217  0.0254  0.0143  0.1719  0.0000  0.0000  0.0000  0.0000  0.0000 </r>
       </set>
      </set>
      <set comment="kpoint 12">
       <set comment="band 1">
        <r>  0.4139  0.0000  0.0000  0.0157  0.0000  0.0000  0.0000  0.0000  0.0000 </r>
       </set>
       <set comment="band 2">
        <r>  0.1648  0.0000  0.0000  0.1940  0.0000  0.0000  0.0000  0.0000  0.0000 </r>
       </set>
       <set comment="band 3">
        <r>  0.3135  0.0011  0.0001  0.1011  0.0000  0.0000  0.0000  0.0000  0.0000 </r>
       </set>
       <set comment="band 4">
        <r>  0.0001  0.5394  0.0001  0.0000  0.0000  0.0000  0.0000  0.0000  0.0000 </r>
       </set>
       <set comment="band 5">
        <r>  0.1033  0.0322  0.0953  0.4270  0.0000  0.0000  0.0000  0.0000  0.0000 </r>
       </set>
       <set comment="band 6">
        <r>  0.0020  0.1359  0.0659  0.9233  0.0000  0.0000  0.0000  0.0000  0.0000 </r>
       </set>
       <set comment="band 7">
        <r>  0.1064  0.1962  0.6083  0.0933  0.0000  0.0000  0.0000  0.0000  0.0000 </r>
       </set>
       <set comment="band 8">
        <r>  0.0023  0.0912  0.1548  1.3668  0.0000  0.0000  0.0000  0.0000  0.0000 </r>
       </set>
      </set>
      <set comment="kpoint 13">
       <set comment="band 1">
        <r>  0.4183  0.0000  0.0000  0.0181  0.0000  0.0000  0.0000  0.0000  0.0000 </r>
       </set>
       <set comment="band 2">
        <r>  0.1577  0.0000  0.0000  0.1846  0.0000  0.0000  0.0000  0.0000  0.0000 </r>
       </set>
       <set comment="band 3">
        <r>  0.3242  0.0021  0.0000  0.0960  0.0000  0.0000  0.0000  0.0000  0.0000 </r>
       </set>
       <set comment="band 4">
        <r>  0.0001  0.5530  0.0000  0.0000  0.0000  0.0000  0.0000  0.0000  0.0000 </r>
       </set>
       <set comment="band 5">
        <r>  0.0335  0.1578  0.1332  0.0194  0.0000  0.0000  0.0000  0.0000  0.0000 </r>
       </set>
       <set comment="band 6">
        <r>  0.0144  0.3005  0.2097  0.6496  0.0000  0.0000  0.0000  0.0000  0.0000 </r>
       </set>
       <set comment="band 7">
        <r>  0.1318  0.0461  0.1012  0.2388  0.0000  0.0000  0.0000  0.0000  0.0000 </r>
       </set>
       <set comment="band 8">
        <r>  0.0105  0.0120  0.6651  0.0659  0.0000  0.0000  0.0000  0.0000  0.0000 </r>
       </set>
      </set>
      <set comment="kpoint 14">
       <set comment="band 1">
        <r>  0.4248  0.0000  0.0000  0.0192  0.0000  0.0000  0.0000  0.0000  0.0000 </r>
       </set>
       <set comment="band 2">
        <r>  0.1487  0.0000  0.0000  0.1797  0.0000  0.0000  0.0000  0.0000  0.0000 </r>
       </set>
       <set comment="band 3">
        <r>  0.3350  0.0019  0.0000  0.0883  0.0000  0.0000  0.0000  0.0000  0.0000 </r>
       </set>
       <set comment="band 4">
        <r>  0.0001  0.6243  0.0000  0.0000  0.0000  0.0000  0.0000  0.0000  0.0000 </r>
       </set>
       <set comment="band 5">
        <r>  0.0344  0.1185  0.2206  0.1934  0.0000  0.0000  0.0000  0.0000  0.0000 </r>
       </set>
       <set comment="band 6">
        <r>  0.0207  0.1234  0.0293  0.1158  0.0000  0.0000  0.0000  0.0000  0.0000 </r>
       </set>
       <set comment="band 7">
        <r>  0.0613  0.4774  0.0769  0.0069  0.0000  0.0000  0.0000  0.0000  0.0000 </r>
       </set>
       <set comment="band 8">
        <r>  0.1143  0.0509  0.0686  0.4260  0.0000  0.0000  0.0000  0.0000  0.0000 </r>
       </set>
      </set>
      <set comment="kpoint 15">
       <set comment="band 1">
        <r>  0.4354  0.0000  0.0000  0.0205  0.0000  0.0000  0.0000  0.0000  0.0000 </r>
       </set>
       <set comment="band 2">
        <r>  0.1366  0.0000  0.0000  0.1728  0.0000  0.0000  0.0000  0.0000  0.0000 </r>
       </set>
       <set comment="band 3">
        <r>  0.3478  0.0022  0.0000  0.0805  0.0000  0.0000  0.0000  0.0000  0.0000 </r>
       </set>
       <set comment="band 4">
        <r>  0.0001  0.6844  0.0000  0.0000  0.0000  0.0000  0.0000  0.0000  0.0000 </r>
       </set>
       <set comment="band 5">
        <r>  0.0199  0.4116  0.0378  0.1388  0.0000  0.0000  0.0000  0.0000  0.0000 </r>
       </set>
       <set comment="band 6">
        <r>  0.0260  0.0363  0.0915  0.1039  0.0000  0.0000  0.0000  0.0000  0.0000 </r>
       </set>
       <set comment="band 7">
        <r>  0.0573  0.0930  0.4729  0.0224  0.0000  0.0000  0.0000  0.0000  0.0000 </r>
       </set>
       <set comment="band 8">
        <r>  0.1108  0.1677  0.0199  0.2706  0.0000  0.0000  0.0000  0.0000  0.0000 </r>
       </set>
      </set>
      <set comment="kpoint 16">
       <set comment="band 1">
        <r>  0.4516  0.0000  0.0000  0.0206  0.0000  0.0000  0.0000  0.0000  0.0000 </r>
       </set>
       <set comment="band 2">
        <r>  0.1194  0.0000  0.0000  0.1681  0.0000  0.0000  0.0000  0.0000  0.0000 </r>
       </set>
       <set comment="band 3">
        <r>  0.3639  0.0002  0.0000  0.0689  0.0000  0.0000  0.0000  0.0000  0.0000 </r>
       </set>
       <set comment="band 4">
        <r>  0.0000  0.7591  0.0000  0.0000  0.0000  0.0000  0.0000  0.0000  0.0000 </r>
       </set>
       <set comment="band 5">
        <r>  0.0018  0.0581  0.0284  0.0145  0.0000  0.0000  0.0000  0.0000  0.0000 </r>
       </set>
       <set comment="band 6">
        <r>  0.0527  0.1670  0.2218  0.1857  0.0000  0.0000  0.0000  0.0000  0.0000 </r>
       </set>
       <set comment="band 7">
        <r>  0.1012  0.0246  0.1786  0.0003  0.0000  0.0000  0.0000  0.0000  0.0000 </r>
       </set>
       <set comment="band 8">
        <r>  0.0702  0.2931  0.0627  0.0531  0.0000  0.0000  0.0000  0.0000  0.0000 </r>
       </set>
      </set>
      <set comment="kpoint 17">
       <set comment="band 1">
        <r>  0.4758  0.0000  0.0000  0.0186  0.0000  0.0000  0.0000  0.0000  0.0000 </r>
       </set>
       <set comment="band 2">
        <r>  0.0944  0.0000  0.0000  0.1666  0.0000  0.0000  0.0000  0.0000  0.0000 </r>
       </set>
       <set comment="band 3">
        <r>  0.3809  0.0002  0.0000  0.0520  0.0000  0.0000  0.0000  0.0000  0.0000 </r>
       </set>
       <set comment="band 4">
        <r>  0.0000  0.8252  0.0000  0.0000  0.0000  0.0000  0.0000  0.0000  0.0000 </r>
       </set>
       <set comment="band 5">
        <r>  0.0006  0.2000  0.0092  0.0181  0.0000  0.0000  0.0000  0.0000  0.0000 </r>
       </set>
       <set comment="band 6">
        <r>  0.0275  0.1481  0.3289  0.1169  0.0000  0.0000  0.0000  0.0000  0.0000 </r>
       </set>
       <set comment="band 7">
        <r>  0.0692  0.0346  0.4899  0.2012  0.0000  0.0000  0.0000  0.0000  0.0000 </r>
       </set>
       <set comment="band 8">
        <r>  0.0416  0.0050  0.0605  0.3610  0.0000  0.0000  0.0000  0.0000  0.0000 </r>
       </set>
      </set>
      <set comment="kpoint 18">
       <set comment="band 1">
        <r>  0.5097  0.0000  0.0000  0.0113  0.0000  0.0000  0.0000  0.0000  0.0000 </r>
       </set>
       <set comment="band 2">
        <r>  0.0594  0.0000  0.0000  0.1781  0.0000  0.0000  0.0000  0.0000  0.0000 </r>
       </set>
       <set comment="band 3">
        <r>  0.3993  0.0001  0.0000  0.0255  0.0000  0.0000  0.0000  0.0000  0.0000 </r>
       </set>
       <set comment="band 4">
        <r>  0.0000  1.0846  0.0001  0.0001  0.0000  0.0000  0.0000  0.0000  0.0000 </r>
       </set>
       <set comment="band 5">
        <r>  0.0098  0.1710  0.0471  0.3231  0.0000  0.0000  0.0000  0.0000  0.0000 </r>
       </set>
       <set comment="band 6">
        <r>  0.0280  0.1141  0.7879  0.2473  0.0000  0.0000  0.0000  0.0000  0.0000 </r>
       </set>
       <set comment="band 7">
        <r>  0.0963  0.0086  0.3177  0.0098  0.0000  0.0000  0.0000  0.0000  0.0000 </r>
       </set>
       <set comment="band 8">
        <r>  0.1211  0.1076  0.0422  0.0311  0.0000  0.0000  0.0000  0.0000  0.0000 </r>
       </set>
      </set>
      <set comment="kpoint 19">
       <set comment="band 1">
        <r>  0.5487  0.0000  0.0000  0.0041  0.0000  0.0000  0.0000  0.0000  0.0000 </r>
       </set>
       <set comment="band 2">
        <r>  0.0201  0.0000  0.0000  0.1836  0.0000  0.0000  0.0000  0.0000  0.0000 </r>
       </set>
       <set comment="band 3">
        <r>  0.4147  0.0001  0.0000  0.0072  0.0000  0.0000  0.0000  0.0000  0.0000 </r>
       </set>
       <set comment="band 4">
        <r>  0.0000  1.2421  0.0000  0.0003  0.0000  0.0000  0.0000  0.0000  0.0000 </r>
       </set>
       <set comment="band 5">
        <r>  0.0016  0.0123  0.0329  0.0021  0.0000  0.0000  0.0000  0.0000  0.0000 </r>
       </set>
       <set comment="band 6">
        <r>  0.2132  0.0259  0.0568  0.0074  0.0000  0.0000  0.0000  0.0000  0.0000 </r>
       </set>
       <set comment="band 7">
        <r>  0.0140  0.4127  0.0509  0.0010  0.0000  0.0000  0.0000  0.0000  0.0000 </r>
       </set>
       <set comment="band 8">
        <r>  0.0058  0.0526  0.9168  0.0186  0.0000  0.0000  0.0000  0.0000  0.0000 </r>
       </set>
      </set>
      <set comment="kpoint 20">
       <set comment="band 1">
        <r>  0.5687  0.0000  0.0000  0.0000  0.0000  0.0000  0.0000  0.0000  0.0000 </r>
       </set>
       <set comment="band 2">
        <r>  0.0000  0.0000  0.0000  0.1871  0.0000  0.0000  0.0000  0.0000  0.0000 </r>
       </set>
       <set comment="band 3">
        <r>  0.4206  0.0002  0.0000  0.0000  0.0000  0.0000  0.0000  0.0000  0.0000 </r>
       </set>
       <set comment="band 4">
        <r>  0.0000  1.5079  0.0221  0.0070  0.0000  0.0000  0.0000  0.0000  0.0000 </r>
       </set>
       <set comment="band 5">
        <r>  0.0000  0.0190  0.0578  0.0084  0.0000  0.0000  0.0000  0.0000  0.0000 </r>
       </set>
       <set comment="band 6">
        <r>  0.2050  0.0497  0.1831  0.0373  0.0000  0.0000  0.0000  0.0000  0.0000 </r>
       </set>
       <set comment="band 7">
        <r>  0.0281  0.0555  0.7452  0.0185  0.0000  0.0000  0.0000  0.0000  0.0000 </r>
       </set>
       <set comment="band 8">
        <r>  0.0065  0.4420  0.6565  0.1444  0.0000  0.0000  0.0000  0.0000  0.0000 </r>
       </set>
      </set>
     </set>
    </set>
   </array>
  </projected>
 </calculation>
 <structure name="finalpos" >
  <crystal>
   <varray name="basis" >
    <v>       1.43536055       0.00000000       0.00000000 </v>
    <v>       0.00000000       1.43536055       0.00000000 </v>
    <v>       0.00000000       0.00000000       1.43536055 </v>
   </varray>
   <i name="volume">      2.95721580 </i>
   <varray name="rec_basis" >
    <v>       0.69668907       0.00000000       0.00000000 </v>
    <v>       0.00000000       0.69668907       0.00000000 </v>
    <v>       0.00000000       0.00000000       0.69668907 </v>
   </varray>
  </crystal>
  <varray name="positions" >
   <v>       0.00000000       0.00000000       0.00000000 </v>
  </varray>
 </structure>
</modeling>
