   1   1   1   0
  0.2957216E+01  0.1435361E-09  0.1435361E-09  0.1435361E-09  0.5000000E-15
  1.000000000000000E-004
  CAR 
 jump2                                   
     81.88596147    -18.15067552  301      2.31478357      1.00000000
    -18.151  0.0000E+00  0.0000E+00
    -17.817  0.0000E+00  0.0000E+00
    -17.484  0.0000E+00  0.0000E+00
    -17.150  0.0000E+00  0.0000E+00
    -16.817  0.0000E+00  0.0000E+00
    -16.483  0.0000E+00  0.0000E+00
    -16.150  0.0000E+00  0.0000E+00
    -15.816  0.0000E+00  0.0000E+00
    -15.483  0.0000E+00  0.0000E+00
    -15.150  0.0000E+00  0.0000E+00
    -14.816  0.0000E+00  0.0000E+00
    -14.483  0.0000E+00  0.0000E+00
    -14.149  0.0000E+00  0.0000E+00
    -13.816  0.0000E+00  0.0000E+00
    -13.482  0.2688E-02  0.1086E-03
    -13.149  0.1201E-01  0.3185E-02
    -12.815  0.1881E-01  0.8310E-02
    -12.482  0.2132E-01  0.1494E-01
    -12.148  0.2500E-01  0.2267E-01
    -11.815  0.2816E-01  0.3163E-01
    -11.482  0.3040E-01  0.4137E-01
    -11.148  0.3277E-01  0.5189E-01
    -10.815  0.3572E-01  0.6331E-01
    -10.481  0.3749E-01  0.7555E-01
    -10.148  0.3928E-01  0.8835E-01
     -9.814  0.4125E-01  0.1018E+00
     -9.481  0.4346E-01  0.1159E+00
     -9.147  0.4560E-01  0.1308E+00
     -8.814  0.4708E-01  0.1462E+00
     -8.480  0.4864E-01  0.1622E+00
     -8.147  0.5034E-01  0.1787E+00
     -7.814  0.5208E-01  0.1957E+00
     -7.480  0.5390E-01  0.2134E+00
     -7.147  0.5554E-01  0.2317E+00
     -6.813  0.5697E-01  0.2504E+00
     -6.480  0.5838E-01  0.2697E+00
     -6.146  0.5993E-01  0.2894E+00
     -5.813  0.6153E-01  0.3096E+00
     -5.479  0.6319E-01  0.3304E+00
     -5.146  0.6487E-01  0.3518E+00
     -4.812  0.6628E-01  0.3736E+00
     -4.479  0.6772E-01  0.3960E+00
     -4.146  0.6924E-01  0.4188E+00
     -3.812  0.7080E-01  0.4422E+00
     -3.479  0.7238E-01  0.4660E+00
     -3.145  0.7402E-01  0.4904E+00
     -2.812  0.7572E-01  0.5154E+00
     -2.478  0.7767E-01  0.5410E+00
     -2.145  0.7968E-01  0.5672E+00
     -1.811  0.8172E-01  0.5941E+00
     -1.478  0.8380E-01  0.6217E+00
     -1.144  0.8590E-01  0.6500E+00
     -0.811  0.8804E-01  0.6790E+00
     -0.478  0.9181E-01  0.7088E+00
     -0.144  0.9809E-01  0.7405E+00
      0.189  0.1047E+00  0.7743E+00
      0.523  0.1103E+00  0.8102E+00
      0.856  0.1089E+00  0.8467E+00
      1.190  0.1070E+00  0.8828E+00
      1.523  0.1054E+00  0.9182E+00
      1.857  0.1037E+00  0.9531E+00
      2.190  0.1020E+00  0.9873E+00
      2.524  0.1004E+00  0.1021E+01
      2.857  0.9861E-01  0.1054E+01
      3.190  0.9664E-01  0.1087E+01
      3.524  0.9522E-01  0.1119E+01
      3.857  0.9383E-01  0.1150E+01
      4.191  0.9221E-01  0.1181E+01
      4.524  0.9041E-01  0.1212E+01
      4.858  0.8868E-01  0.1242E+01
      5.191  0.8720E-01  0.1271E+01
      5.525  0.8589E-01  0.1300E+01
      5.858  0.8438E-01  0.1328E+01
      6.192  0.8274E-01  0.1356E+01
      6.525  0.8105E-01  0.1383E+01
      6.858  0.7956E-01  0.1410E+01
      7.192  0.7815E-01  0.1436E+01
      7.525  0.7682E-01  0.1462E+01
      7.859  0.7544E-01  0.1488E+01
      8.192  0.7396E-01  0.1513E+01
      8.526  0.7245E-01  0.1537E+01
      8.859  0.7102E-01  0.1561E+01
      9.193  0.6959E-01  0.1584E+01
      9.526  0.6895E-01  0.1607E+01
      9.860  0.7369E-01  0.1631E+01
     10.193  0.7862E-01  0.1657E+01
     10.526  0.8317E-01  0.1684E+01
     10.860  0.8759E-01  0.1712E+01
     11.193  0.8951E-01  0.1742E+01
     11.527  0.9088E-01  0.1772E+01
     11.860  0.9281E-01  0.1802E+01
     12.194  0.9534E-01  0.1834E+01
     12.527  0.9398E-01  0.1865E+01
     12.861  0.9016E-01  0.1896E+01
     13.194  0.8755E-01  0.1926E+01
     13.528  0.8654E-01  0.1955E+01
     13.861  0.8616E-01  0.1983E+01
     14.195  0.8645E-01  0.2012E+01
     14.528  0.8641E-01  0.2041E+01
     14.861  0.8631E-01  0.2070E+01
     15.195  0.8648E-01  0.2099E+01
     15.528  0.8700E-01  0.2127E+01
     15.862  0.8775E-01  0.2157E+01
     16.195  0.8852E-01  0.2186E+01
     16.529  0.8929E-01  0.2216E+01
     16.862  0.9015E-01  0.2246E+01
     17.196  0.9105E-01  0.2276E+01
     17.529  0.9205E-01  0.2306E+01
     17.863  0.9323E-01  0.2337E+01
     18.196  0.9461E-01  0.2368E+01
     18.529  0.9594E-01  0.2400E+01
     18.863  0.9711E-01  0.2432E+01
     19.196  0.9828E-01  0.2465E+01
     19.530  0.9946E-01  0.2498E+01
     19.863  0.1008E+00  0.2531E+01
     20.197  0.1024E+00  0.2565E+01
     20.530  0.1043E+00  0.2600E+01
     20.864  0.1063E+00  0.2635E+01
     21.197  0.1086E+00  0.2671E+01
     21.531  0.1108E+00  0.2707E+01
     21.864  0.1130E+00  0.2745E+01
     22.197  0.1178E+00  0.2783E+01
     22.531  0.1258E+00  0.2823E+01
     22.864  0.1315E+00  0.2866E+01
     23.198  0.1327E+00  0.2910E+01
     23.531  0.1334E+00  0.2955E+01
     23.865  0.1335E+00  0.2999E+01
     24.198  0.1351E+00  0.3045E+01
     24.532  0.1337E+00  0.3090E+01
     24.865  0.1276E+00  0.3134E+01
     25.199  0.1219E+00  0.3175E+01
     25.532  0.1173E+00  0.3215E+01
     25.865  0.1127E+00  0.3253E+01
     26.199  0.1096E+00  0.3290E+01
     26.532  0.1133E+00  0.3327E+01
     26.866  0.1197E+00  0.3366E+01
     27.199  0.1260E+00  0.3408E+01
     27.533  0.1213E+00  0.3449E+01
     27.866  0.1211E+00  0.3489E+01
     28.200  0.1236E+00  0.3530E+01
     28.533  0.1259E+00  0.3572E+01
     28.867  0.1248E+00  0.3614E+01
     29.200  0.1245E+00  0.3655E+01
     29.533  0.1242E+00  0.3697E+01
     29.867  0.1265E+00  0.3738E+01
     30.200  0.1301E+00  0.3781E+01
     30.534  0.1294E+00  0.3826E+01
     30.867  0.1254E+00  0.3869E+01
     31.201  0.1207E+00  0.3910E+01
     31.534  0.1181E+00  0.3949E+01
     31.868  0.1179E+00  0.3989E+01
     32.201  0.1216E+00  0.4029E+01
     32.535  0.1237E+00  0.4071E+01
     32.868  0.1213E+00  0.4111E+01
     33.201  0.1211E+00  0.4152E+01
     33.535  0.1221E+00  0.4192E+01
     33.868  0.1230E+00  0.4233E+01
     34.202  0.1266E+00  0.4274E+01
     34.535  0.1297E+00  0.4318E+01
     34.869  0.1311E+00  0.4361E+01
     35.202  0.1342E+00  0.4406E+01
     35.536  0.1370E+00  0.4452E+01
     35.869  0.1394E+00  0.4498E+01
     36.203  0.1442E+00  0.4545E+01
     36.536  0.1524E+00  0.4594E+01
     36.869  0.1590E+00  0.4646E+01
     37.203  0.1604E+00  0.4700E+01
     37.536  0.1610E+00  0.4753E+01
     37.870  0.1585E+00  0.4807E+01
     38.203  0.1647E+00  0.4861E+01
     38.537  0.1572E+00  0.4914E+01
     38.870  0.1490E+00  0.4965E+01
     39.204  0.1498E+00  0.5015E+01
     39.537  0.1376E+00  0.5063E+01
     39.871  0.1342E+00  0.5108E+01
     40.204  0.1337E+00  0.5153E+01
     40.537  0.1390E+00  0.5199E+01
     40.871  0.1366E+00  0.5244E+01
     41.204  0.1380E+00  0.5290E+01
     41.538  0.1395E+00  0.5336E+01
     41.871  0.1417E+00  0.5383E+01
     42.205  0.1462E+00  0.5431E+01
     42.538  0.1508E+00  0.5481E+01
     42.872  0.1573E+00  0.5532E+01
     43.205  0.1535E+00  0.5584E+01
     43.539  0.1526E+00  0.5635E+01
     43.872  0.1597E+00  0.5686E+01
     44.205  0.1545E+00  0.5739E+01
     44.539  0.1467E+00  0.5789E+01
     44.872  0.1415E+00  0.5837E+01
     45.206  0.1371E+00  0.5883E+01
     45.539  0.1362E+00  0.5929E+01
     45.873  0.1364E+00  0.5974E+01
     46.206  0.1366E+00  0.6020E+01
     46.540  0.1362E+00  0.6065E+01
     46.873  0.1338E+00  0.6111E+01
     47.207  0.1303E+00  0.6155E+01
     47.540  0.1279E+00  0.6198E+01
     47.874  0.1272E+00  0.6240E+01
     48.207  0.1289E+00  0.6283E+01
     48.540  0.1291E+00  0.6326E+01
     48.874  0.1262E+00  0.6369E+01
     49.207  0.1245E+00  0.6411E+01
     49.541  0.1235E+00  0.6452E+01
     49.874  0.1208E+00  0.6493E+01
     50.208  0.1182E+00  0.6533E+01
     50.541  0.1166E+00  0.6572E+01
     50.875  0.1177E+00  0.6611E+01
     51.208  0.1143E+00  0.6650E+01
     51.542  0.1128E+00  0.6688E+01
     51.875  0.1117E+00  0.6725E+01
     52.208  0.1106E+00  0.6762E+01
     52.542  0.1099E+00  0.6799E+01
     52.875  0.1101E+00  0.6835E+01
     53.209  0.1117E+00  0.6872E+01
     53.542  0.1117E+00  0.6910E+01
     53.876  0.1080E+00  0.6946E+01
     54.209  0.1059E+00  0.6982E+01
     54.543  0.1038E+00  0.7017E+01
     54.876  0.1009E+00  0.7051E+01
     55.210  0.9856E-01  0.7084E+01
     55.543  0.9800E-01  0.7117E+01
     55.876  0.9862E-01  0.7150E+01
     56.210  0.9682E-01  0.7182E+01
     56.543  0.9424E-01  0.7214E+01
     56.877  0.9272E-01  0.7245E+01
     57.210  0.9183E-01  0.7276E+01
     57.544  0.9180E-01  0.7307E+01
     57.877  0.9079E-01  0.7337E+01
     58.211  0.8969E-01  0.7367E+01
     58.544  0.8888E-01  0.7397E+01
     58.878  0.8717E-01  0.7426E+01
     59.211  0.8528E-01  0.7455E+01
     59.544  0.8379E-01  0.7483E+01
     59.878  0.8247E-01  0.7511E+01
     60.211  0.8210E-01  0.7539E+01
     60.545  0.8231E-01  0.7566E+01
     60.878  0.8104E-01  0.7593E+01
     61.212  0.7902E-01  0.7620E+01
     61.545  0.7657E-01  0.7646E+01
     61.879  0.7265E-01  0.7671E+01
     62.212  0.7015E-01  0.7695E+01
     62.546  0.6868E-01  0.7718E+01
     62.879  0.6725E-01  0.7740E+01
     63.212  0.6452E-01  0.7762E+01
     63.546  0.6139E-01  0.7783E+01
     63.879  0.5782E-01  0.7803E+01
     64.213  0.5426E-01  0.7822E+01
     64.546  0.5036E-01  0.7839E+01
     64.880  0.4642E-01  0.7855E+01
     65.213  0.4234E-01  0.7870E+01
     65.547  0.3853E-01  0.7884E+01
     65.880  0.3472E-01  0.7896E+01
     66.214  0.3082E-01  0.7907E+01
     66.547  0.2718E-01  0.7917E+01
     66.880  0.2389E-01  0.7925E+01
     67.214  0.2156E-01  0.7933E+01
     67.547  0.1947E-01  0.7939E+01
     67.881  0.1752E-01  0.7946E+01
     68.214  0.1612E-01  0.7951E+01
     68.548  0.1536E-01  0.7956E+01
     68.881  0.1462E-01  0.7961E+01
     69.215  0.1357E-01  0.7966E+01
     69.548  0.1237E-01  0.7970E+01
     69.882  0.1070E-01  0.7974E+01
     70.215  0.9057E-02  0.7978E+01
     70.548  0.7801E-02  0.7980E+01
     70.882  0.6884E-02  0.7983E+01
     71.215  0.6161E-02  0.7985E+01
     71.549  0.5536E-02  0.7987E+01
     71.882  0.5001E-02  0.7989E+01
     72.216  0.4509E-02  0.7990E+01
     72.549  0.4054E-02  0.7992E+01
     72.883  0.3635E-02  0.7993E+01
     73.216  0.3262E-02  0.7994E+01
     73.550  0.2946E-02  0.7995E+01
     73.883  0.2641E-02  0.7996E+01
     74.216  0.2342E-02  0.7997E+01
     74.550  0.2050E-02  0.7998E+01
     74.883  0.1764E-02  0.7998E+01
     75.217  0.1486E-02  0.7999E+01
     75.550  0.1147E-02  0.7999E+01
     75.884  0.7636E-03  0.8000E+01
     76.217  0.4537E-03  0.8000E+01
     76.551  0.2241E-03  0.8000E+01
     76.884  0.7457E-04  0.8000E+01
     77.218  0.5303E-05  0.8000E+01
     77.551  0.0000E+00  0.8000E+01
     77.884  0.0000E+00  0.8000E+01
     78.218  0.0000E+00  0.8000E+01
     78.551  0.0000E+00  0.8000E+01
     78.885  0.0000E+00  0.8000E+01
     79.218  0.0000E+00  0.8000E+01
     79.552  0.0000E+00  0.8000E+01
     79.885  0.0000E+00  0.8000E+01
     80.219  0.0000E+00  0.8000E+01
     80.552  0.0000E+00  0.8000E+01
     80.886  0.0000E+00  0.8000E+01
     81.219  0.0000E+00  0.8000E+01
     81.553  0.0000E+00  0.8000E+01
     81.886  0.0000E+00  0.8000E+01
     81.88596147    -18.15067552  301      2.31478357      1.00000000
    -18.151  0.0000E+00  0.0000E+00  0.0000E+00  0.0000E+00  0.0000E+00  0.0000E+00  0.0000E+00  0.0000E+00  0.0000E+00
    -17.817  0.0000E+00  0.0000E+00  0.0000E+00  0.0000E+00  0.0000E+00  0.0000E+00  0.0000E+00  0.0000E+00  0.0000E+00
    -17.484  0.0000E+00  0.0000E+00  0.0000E+00  0.0000E+00  0.0000E+00  0.0000E+00  0.0000E+00  0.0000E+00  0.0000E+00
    -17.150  0.0000E+00  0.0000E+00  0.0000E+00  0.0000E+00  0.0000E+00  0.0000E+00  0.0000E+00  0.0000E+00  0.0000E+00
    -16.817  0.0000E+00  0.0000E+00  0.0000E+00  0.0000E+00  0.0000E+00  0.0000E+00  0.0000E+00  0.0000E+00  0.0000E+00
    -16.483  0.0000E+00  0.0000E+00  0.0000E+00  0.0000E+00  0.0000E+00  0.0000E+00  0.0000E+00  0.0000E+00  0.0000E+00
    -16.150  0.0000E+00  0.0000E+00  0.0000E+00  0.0000E+00  0.0000E+00  0.0000E+00  0.0000E+00  0.0000E+00  0.0000E+00
    -15.816  0.0000E+00  0.0000E+00  0.0000E+00  0.0000E+00  0.0000E+00  0.0000E+00  0.0000E+00  0.0000E+00  0.0000E+00
    -15.483  0.0000E+00  0.0000E+00  0.0000E+00  0.0000E+00  0.0000E+00  0.0000E+00  0.0000E+00  0.0000E+00  0.0000E+00
    -15.150  0.0000E+00  0.0000E+00  0.0000E+00  0.0000E+00  0.0000E+00  0.0000E+00  0.0000E+00  0.0000E+00  0.0000E+00
    -14.816  0.0000E+00  0.0000E+00  0.0000E+00  0.0000E+00  0.0000E+00  0.0000E+00  0.0000E+00  0.0000E+00  0.0000E+00
    -14.483  0.0000E+00  0.0000E+00  0.0000E+00  0.0000E+00  0.0000E+00  0.0000E+00  0.0000E+00  0.0000E+00  0.0000E+00
    -14.149  0.0000E+00  0.0000E+00  0.0000E+00  0.0000E+00  0.0000E+00  0.0000E+00  0.0000E+00  0.0000E+00  0.0000E+00
    -13.816  0.0000E+00  0.0000E+00  0.0000E+00  0.0000E+00  0.0000E+00  0.0000E+00  0.0000E+00  0.0000E+00  0.0000E+00
    -13.482  0.1106E-02  0.5306E-06  0.1063E-06  0.1271E-05  0.0000E+00  0.0000E+00  0.0000E+00  0.0000E+00  0.0000E+00
    -13.149  0.4933E-02  0.5677E-05  0.1792E-05  0.1496E-04  0.0000E+00  0.0000E+00  0.0000E+00  0.0000E+00  0.0000E+00
    -12.815  0.7723E-02  0.1234E-04  0.4514E-05  0.3565E-04  0.0000E+00  0.0000E+00  0.0000E+00  0.0000E+00  0.0000E+00
    -12.482  0.8740E-02  0.2048E-04  0.6579E-05  0.5630E-04  0.0000E+00  0.0000E+00  0.0000E+00  0.0000E+00  0.0000E+00
    -12.148  0.1024E-01  0.2845E-04  0.9050E-05  0.7745E-04  0.0000E+00  0.0000E+00  0.0000E+00  0.0000E+00  0.0000E+00
    -11.815  0.1153E-01  0.3979E-04  0.1184E-04  0.1021E-03  0.0000E+00  0.0000E+00  0.0000E+00  0.0000E+00  0.0000E+00
    -11.482  0.1243E-01  0.4878E-04  0.1464E-04  0.1282E-03  0.0000E+00  0.0000E+00  0.0000E+00  0.0000E+00  0.0000E+00
    -11.148  0.1340E-01  0.5846E-04  0.1771E-04  0.1582E-03  0.0000E+00  0.0000E+00  0.0000E+00  0.0000E+00  0.0000E+00
    -10.815  0.1459E-01  0.7047E-04  0.2078E-04  0.1908E-03  0.0000E+00  0.0000E+00  0.0000E+00  0.0000E+00  0.0000E+00
    -10.481  0.1531E-01  0.8254E-04  0.2392E-04  0.2255E-03  0.0000E+00  0.0000E+00  0.0000E+00  0.0000E+00  0.0000E+00
    -10.148  0.1604E-01  0.9520E-04  0.2732E-04  0.2633E-03  0.0000E+00  0.0000E+00  0.0000E+00  0.0000E+00  0.0000E+00
     -9.814  0.1685E-01  0.1098E-03  0.3082E-04  0.3037E-03  0.0000E+00  0.0000E+00  0.0000E+00  0.0000E+00  0.0000E+00
     -9.481  0.1775E-01  0.1240E-03  0.3441E-04  0.3452E-03  0.0000E+00  0.0000E+00  0.0000E+00  0.0000E+00  0.0000E+00
     -9.147  0.1863E-01  0.1390E-03  0.3845E-04  0.3890E-03  0.0000E+00  0.0000E+00  0.0000E+00  0.0000E+00  0.0000E+00
     -8.814  0.1925E-01  0.1571E-03  0.4307E-04  0.4360E-03  0.0000E+00  0.0000E+00  0.0000E+00  0.0000E+00  0.0000E+00
     -8.480  0.1990E-01  0.1755E-03  0.4771E-04  0.4829E-03  0.0000E+00  0.0000E+00  0.0000E+00  0.0000E+00  0.0000E+00
     -8.147  0.2061E-01  0.1929E-03  0.5222E-04  0.5292E-03  0.0000E+00  0.0000E+00  0.0000E+00  0.0000E+00  0.0000E+00
     -7.814  0.2134E-01  0.2115E-03  0.5696E-04  0.5775E-03  0.0000E+00  0.0000E+00  0.0000E+00  0.0000E+00  0.0000E+00
     -7.480  0.2211E-01  0.2338E-03  0.6238E-04  0.6299E-03  0.0000E+00  0.0000E+00  0.0000E+00  0.0000E+00  0.0000E+00
     -7.147  0.2281E-01  0.2554E-03  0.6806E-04  0.6817E-03  0.0000E+00  0.0000E+00  0.0000E+00  0.0000E+00  0.0000E+00
     -6.813  0.2344E-01  0.2762E-03  0.7384E-04  0.7328E-03  0.0000E+00  0.0000E+00  0.0000E+00  0.0000E+00  0.0000E+00
     -6.480  0.2407E-01  0.2964E-03  0.7959E-04  0.7840E-03  0.0000E+00  0.0000E+00  0.0000E+00  0.0000E+00  0.0000E+00
     -6.146  0.2476E-01  0.3207E-03  0.8528E-04  0.8385E-03  0.0000E+00  0.0000E+00  0.0000E+00  0.0000E+00  0.0000E+00
     -5.813  0.2547E-01  0.3450E-03  0.9151E-04  0.8922E-03  0.0000E+00  0.0000E+00  0.0000E+00  0.0000E+00  0.0000E+00
     -5.479  0.2621E-01  0.3689E-03  0.9802E-04  0.9451E-03  0.0000E+00  0.0000E+00  0.0000E+00  0.0000E+00  0.0000E+00
     -5.146  0.2697E-01  0.3924E-03  0.1048E-03  0.9974E-03  0.0000E+00  0.0000E+00  0.0000E+00  0.0000E+00  0.0000E+00
     -4.812  0.2766E-01  0.4160E-03  0.1115E-03  0.1047E-02  0.0000E+00  0.0000E+00  0.0000E+00  0.0000E+00  0.0000E+00
     -4.479  0.2837E-01  0.4440E-03  0.1179E-03  0.1099E-02  0.0000E+00  0.0000E+00  0.0000E+00  0.0000E+00  0.0000E+00
     -4.146  0.2912E-01  0.4709E-03  0.1243E-03  0.1149E-02  0.0000E+00  0.0000E+00  0.0000E+00  0.0000E+00  0.0000E+00
     -3.812  0.2990E-01  0.4973E-03  0.1310E-03  0.1197E-02  0.0000E+00  0.0000E+00  0.0000E+00  0.0000E+00  0.0000E+00
     -3.479  0.3070E-01  0.5237E-03  0.1381E-03  0.1245E-02  0.0000E+00  0.0000E+00  0.0000E+00  0.0000E+00  0.0000E+00
     -3.145  0.3152E-01  0.5500E-03  0.1454E-03  0.1292E-02  0.0000E+00  0.0000E+00  0.0000E+00  0.0000E+00  0.0000E+00
     -2.812  0.3239E-01  0.5795E-03  0.1528E-03  0.1340E-02  0.0000E+00  0.0000E+00  0.0000E+00  0.0000E+00  0.0000E+00
     -2.478  0.3348E-01  0.6111E-03  0.1605E-03  0.1382E-02  0.0000E+00  0.0000E+00  0.0000E+00  0.0000E+00  0.0000E+00
     -2.145  0.3461E-01  0.6437E-03  0.1687E-03  0.1421E-02  0.0000E+00  0.0000E+00  0.0000E+00  0.0000E+00  0.0000E+00
     -1.811  0.3576E-01  0.6764E-03  0.1774E-03  0.1456E-02  0.0000E+00  0.0000E+00  0.0000E+00  0.0000E+00  0.0000E+00
     -1.478  0.3695E-01  0.7096E-03  0.1868E-03  0.1487E-02  0.0000E+00  0.0000E+00  0.0000E+00  0.0000E+00  0.0000E+00
     -1.144  0.3817E-01  0.7435E-03  0.1969E-03  0.1516E-02  0.0000E+00  0.0000E+00  0.0000E+00  0.0000E+00  0.0000E+00
     -0.811  0.3944E-01  0.7819E-03  0.2074E-03  0.1542E-02  0.0000E+00  0.0000E+00  0.0000E+00  0.0000E+00  0.0000E+00
     -0.478  0.4163E-01  0.8229E-03  0.2188E-03  0.1570E-02  0.0000E+00  0.0000E+00  0.0000E+00  0.0000E+00  0.0000E+00
     -0.144  0.4528E-01  0.8692E-03  0.2317E-03  0.1595E-02  0.0000E+00  0.0000E+00  0.0000E+00  0.0000E+00  0.0000E+00
      0.189  0.4915E-01  0.9204E-03  0.2459E-03  0.1609E-02  0.0000E+00  0.0000E+00  0.0000E+00  0.0000E+00  0.0000E+00
      0.523  0.5255E-01  0.9782E-03  0.2617E-03  0.1600E-02  0.0000E+00  0.0000E+00  0.0000E+00  0.0000E+00  0.0000E+00
      0.856  0.5207E-01  0.1034E-02  0.2782E-03  0.1571E-02  0.0000E+00  0.0000E+00  0.0000E+00  0.0000E+00  0.0000E+00
      1.190  0.5137E-01  0.1094E-02  0.2953E-03  0.1532E-02  0.0000E+00  0.0000E+00  0.0000E+00  0.0000E+00  0.0000E+00
      1.523  0.5084E-01  0.1149E-02  0.3116E-03  0.1502E-02  0.0000E+00  0.0000E+00  0.0000E+00  0.0000E+00  0.0000E+00
      1.857  0.5021E-01  0.1201E-02  0.3279E-03  0.1473E-02  0.0000E+00  0.0000E+00  0.0000E+00  0.0000E+00  0.0000E+00
      2.190  0.4961E-01  0.1254E-02  0.3432E-03  0.1432E-02  0.0000E+00  0.0000E+00  0.0000E+00  0.0000E+00  0.0000E+00
      2.524  0.4905E-01  0.1297E-02  0.3587E-03  0.1400E-02  0.0000E+00  0.0000E+00  0.0000E+00  0.0000E+00  0.0000E+00
      2.857  0.4838E-01  0.1335E-02  0.3746E-03  0.1372E-02  0.0000E+00  0.0000E+00  0.0000E+00  0.0000E+00  0.0000E+00
      3.190  0.4758E-01  0.1369E-02  0.3896E-03  0.1346E-02  0.0000E+00  0.0000E+00  0.0000E+00  0.0000E+00  0.0000E+00
      3.524  0.4718E-01  0.1412E-02  0.4045E-03  0.1310E-02  0.0000E+00  0.0000E+00  0.0000E+00  0.0000E+00  0.0000E+00
      3.857  0.4679E-01  0.1451E-02  0.4194E-03  0.1274E-02  0.0000E+00  0.0000E+00  0.0000E+00  0.0000E+00  0.0000E+00
      4.191  0.4623E-01  0.1482E-02  0.4344E-03  0.1243E-02  0.0000E+00  0.0000E+00  0.0000E+00  0.0000E+00  0.0000E+00
      4.524  0.4554E-01  0.1507E-02  0.4501E-03  0.1215E-02  0.0000E+00  0.0000E+00  0.0000E+00  0.0000E+00  0.0000E+00
      4.858  0.4490E-01  0.1529E-02  0.4652E-03  0.1185E-02  0.0000E+00  0.0000E+00  0.0000E+00  0.0000E+00  0.0000E+00
      5.191  0.4441E-01  0.1549E-02  0.4801E-03  0.1154E-02  0.0000E+00  0.0000E+00  0.0000E+00  0.0000E+00  0.0000E+00
      5.525  0.4411E-01  0.1574E-02  0.4952E-03  0.1117E-02  0.0000E+00  0.0000E+00  0.0000E+00  0.0000E+00  0.0000E+00
      5.858  0.4365E-01  0.1590E-02  0.5109E-03  0.1084E-02  0.0000E+00  0.0000E+00  0.0000E+00  0.0000E+00  0.0000E+00
      6.192  0.4309E-01  0.1600E-02  0.5251E-03  0.1054E-02  0.0000E+00  0.0000E+00  0.0000E+00  0.0000E+00  0.0000E+00
      6.525  0.4249E-01  0.1605E-02  0.5384E-03  0.1024E-02  0.0000E+00  0.0000E+00  0.0000E+00  0.0000E+00  0.0000E+00
      6.858  0.4201E-01  0.1609E-02  0.5524E-03  0.9925E-03  0.0000E+00  0.0000E+00  0.0000E+00  0.0000E+00  0.0000E+00
      7.192  0.4158E-01  0.1611E-02  0.5667E-03  0.9598E-03  0.0000E+00  0.0000E+00  0.0000E+00  0.0000E+00  0.0000E+00
      7.525  0.4124E-01  0.1610E-02  0.5802E-03  0.9234E-03  0.0000E+00  0.0000E+00  0.0000E+00  0.0000E+00  0.0000E+00
      7.859  0.4088E-01  0.1603E-02  0.5923E-03  0.8890E-03  0.0000E+00  0.0000E+00  0.0000E+00  0.0000E+00  0.0000E+00
      8.192  0.4044E-01  0.1589E-02  0.6045E-03  0.8576E-03  0.0000E+00  0.0000E+00  0.0000E+00  0.0000E+00  0.0000E+00
      8.526  0.3998E-01  0.1571E-02  0.6170E-03  0.8263E-03  0.0000E+00  0.0000E+00  0.0000E+00  0.0000E+00  0.0000E+00
      8.859  0.3955E-01  0.1551E-02  0.6297E-03  0.7924E-03  0.0000E+00  0.0000E+00  0.0000E+00  0.0000E+00  0.0000E+00
      9.193  0.3912E-01  0.1525E-02  0.6409E-03  0.7573E-03  0.0000E+00  0.0000E+00  0.0000E+00  0.0000E+00  0.0000E+00
      9.526  0.3875E-01  0.1496E-02  0.6512E-03  0.8587E-03  0.0000E+00  0.0000E+00  0.0000E+00  0.0000E+00  0.0000E+00
      9.860  0.3862E-01  0.1458E-02  0.6618E-03  0.1913E-02  0.0000E+00  0.0000E+00  0.0000E+00  0.0000E+00  0.0000E+00
     10.193  0.3853E-01  0.1415E-02  0.6731E-03  0.2992E-02  0.0000E+00  0.0000E+00  0.0000E+00  0.0000E+00  0.0000E+00
     10.526  0.3844E-01  0.1367E-02  0.6848E-03  0.4006E-02  0.0000E+00  0.0000E+00  0.0000E+00  0.0000E+00  0.0000E+00
     10.860  0.3821E-01  0.1313E-02  0.6947E-03  0.5033E-02  0.0000E+00  0.0000E+00  0.0000E+00  0.0000E+00  0.0000E+00
     11.193  0.3784E-01  0.1255E-02  0.7036E-03  0.5631E-02  0.0000E+00  0.0000E+00  0.0000E+00  0.0000E+00  0.0000E+00
     11.527  0.3770E-01  0.1196E-02  0.7123E-03  0.6084E-02  0.0000E+00  0.0000E+00  0.0000E+00  0.0000E+00  0.0000E+00
     11.860  0.3810E-01  0.1139E-02  0.7217E-03  0.6502E-02  0.0000E+00  0.0000E+00  0.0000E+00  0.0000E+00  0.0000E+00
     12.194  0.3874E-01  0.1075E-02  0.7325E-03  0.6978E-02  0.0000E+00  0.0000E+00  0.0000E+00  0.0000E+00  0.0000E+00
     12.527  0.3665E-01  0.9870E-03  0.7410E-03  0.7434E-02  0.0000E+00  0.0000E+00  0.0000E+00  0.0000E+00  0.0000E+00
     12.861  0.3278E-01  0.8960E-03  0.7445E-03  0.7880E-02  0.0000E+00  0.0000E+00  0.0000E+00  0.0000E+00  0.0000E+00
     13.194  0.2967E-01  0.8233E-03  0.7417E-03  0.8341E-02  0.0000E+00  0.0000E+00  0.0000E+00  0.0000E+00  0.0000E+00
     13.528  0.2766E-01  0.7625E-03  0.7352E-03  0.8811E-02  0.0000E+00  0.0000E+00  0.0000E+00  0.0000E+00  0.0000E+00
     13.861  0.2607E-01  0.7140E-03  0.7254E-03  0.9286E-02  0.0000E+00  0.0000E+00  0.0000E+00  0.0000E+00  0.0000E+00
     14.195  0.2488E-01  0.6671E-03  0.7165E-03  0.9796E-02  0.0000E+00  0.0000E+00  0.0000E+00  0.0000E+00  0.0000E+00
     14.528  0.2382E-01  0.6226E-03  0.7022E-03  0.1021E-01  0.0000E+00  0.0000E+00  0.0000E+00  0.0000E+00  0.0000E+00
     14.861  0.2274E-01  0.5870E-03  0.6814E-03  0.1060E-01  0.0000E+00  0.0000E+00  0.0000E+00  0.0000E+00  0.0000E+00
     15.195  0.2186E-01  0.5532E-03  0.6619E-03  0.1099E-01  0.0000E+00  0.0000E+00  0.0000E+00  0.0000E+00  0.0000E+00
     15.528  0.2123E-01  0.5175E-03  0.6460E-03  0.1140E-01  0.0000E+00  0.0000E+00  0.0000E+00  0.0000E+00  0.0000E+00
     15.862  0.2064E-01  0.4843E-03  0.6281E-03  0.1184E-01  0.0000E+00  0.0000E+00  0.0000E+00  0.0000E+00  0.0000E+00
     16.195  0.1998E-01  0.4563E-03  0.6038E-03  0.1230E-01  0.0000E+00  0.0000E+00  0.0000E+00  0.0000E+00  0.0000E+00
     16.529  0.1939E-01  0.4301E-03  0.5778E-03  0.1273E-01  0.0000E+00  0.0000E+00  0.0000E+00  0.0000E+00  0.0000E+00
     16.862  0.1892E-01  0.4042E-03  0.5527E-03  0.1315E-01  0.0000E+00  0.0000E+00  0.0000E+00  0.0000E+00  0.0000E+00
     17.196  0.1852E-01  0.3763E-03  0.5279E-03  0.1358E-01  0.0000E+00  0.0000E+00  0.0000E+00  0.0000E+00  0.0000E+00
     17.529  0.1812E-01  0.3494E-03  0.5002E-03  0.1402E-01  0.0000E+00  0.0000E+00  0.0000E+00  0.0000E+00  0.0000E+00
     17.863  0.1773E-01  0.3266E-03  0.4690E-03  0.1449E-01  0.0000E+00  0.0000E+00  0.0000E+00  0.0000E+00  0.0000E+00
     18.196  0.1740E-01  0.3067E-03  0.4384E-03  0.1498E-01  0.0000E+00  0.0000E+00  0.0000E+00  0.0000E+00  0.0000E+00
     18.529  0.1714E-01  0.2864E-03  0.4093E-03  0.1545E-01  0.0000E+00  0.0000E+00  0.0000E+00  0.0000E+00  0.0000E+00
     18.863  0.1691E-01  0.2651E-03  0.3807E-03  0.1589E-01  0.0000E+00  0.0000E+00  0.0000E+00  0.0000E+00  0.0000E+00
     19.196  0.1672E-01  0.2432E-03  0.3503E-03  0.1633E-01  0.0000E+00  0.0000E+00  0.0000E+00  0.0000E+00  0.0000E+00
     19.530  0.1652E-01  0.2232E-03  0.3176E-03  0.1676E-01  0.0000E+00  0.0000E+00  0.0000E+00  0.0000E+00  0.0000E+00
     19.863  0.1630E-01  0.2106E-03  0.2867E-03  0.1722E-01  0.0000E+00  0.0000E+00  0.0000E+00  0.0000E+00  0.0000E+00
     20.197  0.1615E-01  0.2039E-03  0.2577E-03  0.1771E-01  0.0000E+00  0.0000E+00  0.0000E+00  0.0000E+00  0.0000E+00
     20.530  0.1605E-01  0.2015E-03  0.2289E-03  0.1821E-01  0.0000E+00  0.0000E+00  0.0000E+00  0.0000E+00  0.0000E+00
     20.864  0.1607E-01  0.2094E-03  0.1990E-03  0.1873E-01  0.0000E+00  0.0000E+00  0.0000E+00  0.0000E+00  0.0000E+00
     21.197  0.1614E-01  0.2372E-03  0.1699E-03  0.1924E-01  0.0000E+00  0.0000E+00  0.0000E+00  0.0000E+00  0.0000E+00
     21.531  0.1609E-01  0.2951E-03  0.1441E-03  0.1975E-01  0.0000E+00  0.0000E+00  0.0000E+00  0.0000E+00  0.0000E+00
     21.864  0.1596E-01  0.3734E-03  0.1204E-03  0.2026E-01  0.0000E+00  0.0000E+00  0.0000E+00  0.0000E+00  0.0000E+00
     22.197  0.1616E-01  0.5321E-03  0.1008E-03  0.2116E-01  0.0000E+00  0.0000E+00  0.0000E+00  0.0000E+00  0.0000E+00
     22.531  0.1707E-01  0.8225E-03  0.8631E-04  0.2235E-01  0.0000E+00  0.0000E+00  0.0000E+00  0.0000E+00  0.0000E+00
     22.864  0.1739E-01  0.1120E-02  0.7358E-04  0.2318E-01  0.0000E+00  0.0000E+00  0.0000E+00  0.0000E+00  0.0000E+00
     23.198  0.1645E-01  0.1380E-02  0.6442E-04  0.2343E-01  0.0000E+00  0.0000E+00  0.0000E+00  0.0000E+00  0.0000E+00
     23.531  0.1633E-01  0.1624E-02  0.6446E-04  0.2342E-01  0.0000E+00  0.0000E+00  0.0000E+00  0.0000E+00  0.0000E+00
     23.865  0.1673E-01  0.1823E-02  0.6805E-04  0.2322E-01  0.0000E+00  0.0000E+00  0.0000E+00  0.0000E+00  0.0000E+00
     24.198  0.1697E-01  0.2083E-02  0.7099E-04  0.2364E-01  0.0000E+00  0.0000E+00  0.0000E+00  0.0000E+00  0.0000E+00
     24.532  0.1762E-01  0.2180E-02  0.7358E-04  0.2315E-01  0.0000E+00  0.0000E+00  0.0000E+00  0.0000E+00  0.0000E+00
     24.865  0.1729E-01  0.2135E-02  0.7524E-04  0.2204E-01  0.0000E+00  0.0000E+00  0.0000E+00  0.0000E+00  0.0000E+00
     25.199  0.1681E-01  0.2084E-02  0.7533E-04  0.2104E-01  0.0000E+00  0.0000E+00  0.0000E+00  0.0000E+00  0.0000E+00
     25.532  0.1658E-01  0.1992E-02  0.7377E-04  0.2024E-01  0.0000E+00  0.0000E+00  0.0000E+00  0.0000E+00  0.0000E+00
     25.865  0.1643E-01  0.1888E-02  0.7136E-04  0.1934E-01  0.0000E+00  0.0000E+00  0.0000E+00  0.0000E+00  0.0000E+00
     26.199  0.1633E-01  0.1997E-02  0.6857E-04  0.1865E-01  0.0000E+00  0.0000E+00  0.0000E+00  0.0000E+00  0.0000E+00
     26.532  0.1638E-01  0.3647E-02  0.6553E-04  0.1881E-01  0.0000E+00  0.0000E+00  0.0000E+00  0.0000E+00  0.0000E+00
     26.866  0.1688E-01  0.5896E-02  0.6151E-04  0.1906E-01  0.0000E+00  0.0000E+00  0.0000E+00  0.0000E+00  0.0000E+00
     27.199  0.1743E-01  0.8366E-02  0.5772E-04  0.1905E-01  0.0000E+00  0.0000E+00  0.0000E+00  0.0000E+00  0.0000E+00
     27.533  0.1702E-01  0.8141E-02  0.5450E-04  0.1834E-01  0.0000E+00  0.0000E+00  0.0000E+00  0.0000E+00  0.0000E+00
     27.866  0.1682E-01  0.9060E-02  0.5181E-04  0.1799E-01  0.0000E+00  0.0000E+00  0.0000E+00  0.0000E+00  0.0000E+00
     28.200  0.1689E-01  0.1054E-01  0.4969E-04  0.1787E-01  0.0000E+00  0.0000E+00  0.0000E+00  0.0000E+00  0.0000E+00
     28.533  0.1689E-01  0.1220E-01  0.4863E-04  0.1765E-01  0.0000E+00  0.0000E+00  0.0000E+00  0.0000E+00  0.0000E+00
     28.867  0.1686E-01  0.1274E-01  0.5157E-04  0.1715E-01  0.0000E+00  0.0000E+00  0.0000E+00  0.0000E+00  0.0000E+00
     29.200  0.1683E-01  0.1344E-01  0.5820E-04  0.1678E-01  0.0000E+00  0.0000E+00  0.0000E+00  0.0000E+00  0.0000E+00
     29.533  0.1677E-01  0.1418E-01  0.6827E-04  0.1640E-01  0.0000E+00  0.0000E+00  0.0000E+00  0.0000E+00  0.0000E+00
     29.867  0.1692E-01  0.1538E-01  0.8375E-04  0.1626E-01  0.0000E+00  0.0000E+00  0.0000E+00  0.0000E+00  0.0000E+00
     30.200  0.1713E-01  0.1685E-01  0.1055E-03  0.1622E-01  0.0000E+00  0.0000E+00  0.0000E+00  0.0000E+00  0.0000E+00
     30.534  0.1731E-01  0.1717E-01  0.1273E-03  0.1577E-01  0.0000E+00  0.0000E+00  0.0000E+00  0.0000E+00  0.0000E+00
     30.867  0.1613E-01  0.1773E-01  0.1318E-03  0.1496E-01  0.0000E+00  0.0000E+00  0.0000E+00  0.0000E+00  0.0000E+00
     31.201  0.1455E-01  0.1829E-01  0.1098E-03  0.1419E-01  0.0000E+00  0.0000E+00  0.0000E+00  0.0000E+00  0.0000E+00
     31.534  0.1357E-01  0.1884E-01  0.1002E-03  0.1370E-01  0.0000E+00  0.0000E+00  0.0000E+00  0.0000E+00  0.0000E+00
     31.868  0.1316E-01  0.1947E-01  0.1044E-03  0.1340E-01  0.0000E+00  0.0000E+00  0.0000E+00  0.0000E+00  0.0000E+00
     32.201  0.1301E-01  0.2090E-01  0.1042E-03  0.1361E-01  0.0000E+00  0.0000E+00  0.0000E+00  0.0000E+00  0.0000E+00
     32.535  0.1242E-01  0.2246E-01  0.1039E-03  0.1353E-01  0.0000E+00  0.0000E+00  0.0000E+00  0.0000E+00  0.0000E+00
     32.868  0.1189E-01  0.2263E-01  0.9048E-04  0.1305E-01  0.0000E+00  0.0000E+00  0.0000E+00  0.0000E+00  0.0000E+00
     33.201  0.1172E-01  0.2304E-01  0.8867E-04  0.1288E-01  0.0000E+00  0.0000E+00  0.0000E+00  0.0000E+00  0.0000E+00
     33.535  0.1166E-01  0.2366E-01  0.8708E-04  0.1287E-01  0.0000E+00  0.0000E+00  0.0000E+00  0.0000E+00  0.0000E+00
     33.868  0.1164E-01  0.2426E-01  0.8762E-04  0.1284E-01  0.0000E+00  0.0000E+00  0.0000E+00  0.0000E+00  0.0000E+00