   1   1   1   0
  0.2957216E+01  0.1435361E-09  0.1435361E-09  0.1435361E-09  0.5000000E-15
  1.000000000000000E-004
  CAR 
 jump2                                   
    242.06581176    -16.64696112 2001     -2.76407749      1.00000000
    -16.647  0.0000E+00  0.0000E+00
    -16.518  0.0000E+00  0.0000E+00
    -16.388  0.0000E+00  0.0000E+00
    -16.259  0.0000E+00  0.0000E+00
    -16.130  0.0000E+00  0.0000E+00
    -16.000  0.0000E+00  0.0000E+00
    -15.871  0.0000E+00  0.0000E+00
    -15.741  0.0000E+00  0.0000E+00
    -15.612  0.0000E+00  0.0000E+00
    -15.483  0.0000E+00  0.0000E+00
    -15.353  0.0000E+00  0.0000E+00
    -15.224  0.0000E+00  0.0000E+00
    -15.095  0.0000E+00  0.0000E+00
    -14.965  0.0000E+00  0.0000E+00
    -14.836  0.0000E+00  0.0000E+00
    -14.707  0.0000E+00  0.0000E+00
    -14.577  0.0000E+00  0.0000E+00
    -14.448  0.0000E+00  0.0000E+00
    -14.319  0.0000E+00  0.0000E+00
    -14.189  0.0000E+00  0.0000E+00
    -14.060  0.0000E+00  0.0000E+00
    -13.930  0.0000E+00  0.0000E+00
    -13.801  0.0000E+00  0.0000E+00
    -13.672  0.0000E+00  0.0000E+00
    -13.542  0.0000E+00  0.0000E+00
    -13.413  0.0000E+00  0.0000E+00
    -13.284  0.0000E+00  0.0000E+00
    -13.154  0.0000E+00  0.0000E+00
    -13.025  0.0000E+00  0.0000E+00
    -12.896  0.0000E+00  0.0000E+00
    -12.766  0.0000E+00  0.0000E+00
    -12.637  0.0000E+00  0.0000E+00
    -12.508  0.0000E+00  0.0000E+00
    -12.378  0.0000E+00  0.0000E+00
    -12.249  0.0000E+00  0.0000E+00
    -12.119  0.0000E+00  0.0000E+00
    -11.990  0.0000E+00  0.0000E+00
    -11.861  0.0000E+00  0.0000E+00
    -11.731  0.0000E+00  0.0000E+00
    -11.602  0.0000E+00  0.0000E+00
    -11.473  0.0000E+00  0.0000E+00
    -11.343  0.0000E+00  0.0000E+00
    -11.214  0.0000E+00  0.0000E+00
    -11.085  0.0000E+00  0.0000E+00
    -10.955  0.0000E+00  0.0000E+00
    -10.826  0.0000E+00  0.0000E+00
    -10.697  0.0000E+00  0.0000E+00
    -10.567  0.0000E+00  0.0000E+00
    -10.438  0.0000E+00  0.0000E+00
    -10.308  0.0000E+00  0.0000E+00
    -10.179  0.0000E+00  0.0000E+00
    -10.050  0.0000E+00  0.0000E+00
     -9.920  0.0000E+00  0.0000E+00
     -9.791  0.0000E+00  0.0000E+00
     -9.662  0.0000E+00  0.0000E+00
     -9.532  0.0000E+00  0.0000E+00
     -9.403  0.0000E+00  0.0000E+00
     -9.274  0.0000E+00  0.0000E+00
     -9.144  0.0000E+00  0.0000E+00
     -9.015  0.0000E+00  0.0000E+00
     -8.886  0.0000E+00  0.0000E+00
     -8.756  0.0000E+00  0.0000E+00
     -8.627  0.0000E+00  0.0000E+00
     -8.498  0.0000E+00  0.0000E+00
     -8.368  0.0000E+00  0.0000E+00
     -8.239  0.0000E+00  0.0000E+00
     -8.109  0.0000E+00  0.0000E+00
     -7.980  0.0000E+00  0.0000E+00
     -7.851  0.0000E+00  0.0000E+00
     -7.721  0.0000E+00  0.0000E+00
     -7.592  0.0000E+00  0.0000E+00
     -7.463  0.0000E+00  0.0000E+00
     -7.333  0.0000E+00  0.0000E+00
     -7.204  0.0000E+00  0.0000E+00
     -7.075  0.0000E+00  0.0000E+00
     -6.945  0.0000E+00  0.0000E+00
     -6.816  0.0000E+00  0.0000E+00
     -6.687  0.0000E+00  0.0000E+00
     -6.557  0.0000E+00  0.0000E+00
     -6.428  0.0000E+00  0.0000E+00
     -6.298  0.0000E+00  0.0000E+00
     -6.169  0.0000E+00  0.0000E+00
     -6.040  0.0000E+00  0.0000E+00
     -5.910  0.0000E+00  0.0000E+00
     -5.781  0.0000E+00  0.0000E+00
     -5.652  0.0000E+00  0.0000E+00
     -5.522  0.0000E+00  0.0000E+00
     -5.393  0.6650E-12  0.8602E-13
     -5.264  0.7942E-07  0.1027E-07
     -5.134  0.3699E-03  0.4786E-04
     -5.005  0.7410E-01  0.9633E-02
     -4.876  0.8166E+00  0.1153E+00
     -4.746  0.1104E+01  0.2581E+00
     -4.617  0.9588E+00  0.3821E+00
     -4.487  0.1922E+00  0.4069E+00
     -4.358  0.7339E+00  0.5019E+00
     -4.229  0.7092E+00  0.5936E+00
     -4.099  0.4937E-01  0.6000E+00
     -3.970  0.4500E-01  0.6058E+00
     -3.841  0.6880E+00  0.6948E+00
     -3.711  0.7531E+00  0.7922E+00
     -3.582  0.5979E-01  0.8000E+00
     -3.453  0.2953E-03  0.8000E+00
     -3.323  0.2148E-01  0.8028E+00
     -3.194  0.5284E+00  0.8711E+00
     -3.065  0.8845E+00  0.9856E+00
     -2.935  0.1109E+00  0.9999E+00
     -2.806  0.7780E-03  0.1000E+01
     -2.676  0.6292E-05  0.1000E+01
     -2.547  0.6396E-02  0.1001E+01
     -2.418  0.3162E+00  0.1042E+01
     -2.288  0.9850E+00  0.1169E+01
     -2.159  0.2351E+00  0.1200E+01
     -2.030  0.3402E-02  0.1200E+01
     -1.900  0.2250E-05  0.1200E+01
     -1.771  0.1169E-04  0.1200E+01
     -1.642  0.9655E-02  0.1201E+01
     -1.512  0.3800E+00  0.1250E+01
     -1.383  0.9667E+00  0.1375E+01
     -1.254  0.1877E+00  0.1400E+01
     -1.124  0.2152E-02  0.1400E+01
     -0.995  0.1112E-05  0.1400E+01
     -0.865  0.2781E-04  0.1400E+01
     -0.736  0.1644E-01  0.1402E+01
     -0.607  0.4753E+00  0.1464E+01
     -0.477  0.9191E+00  0.1582E+01
     -0.348  0.1342E+00  0.1600E+01
     -0.219  0.1117E-02  0.1600E+01
     -0.089  0.8972E-03  0.1600E+01
      0.040  0.1196E+00  0.1616E+01
      0.169  0.8989E+00  0.1732E+01
      0.299  0.5539E+00  0.1804E+01
      0.428  0.7151E+00  0.1896E+01
      0.557  0.7457E+00  0.1992E+01
      0.687  0.5786E-01  0.2000E+01
      0.816  0.2377E-03  0.2000E+01
      0.946  0.4159E-07  0.2000E+01
      1.075  0.2829E-12  0.2000E+01
      1.204  0.0000E+00  0.2000E+01
      1.334  0.0000E+00  0.2000E+01
      1.463  0.0000E+00  0.2000E+01
      1.592  0.0000E+00  0.2000E+01
      1.722  0.0000E+00  0.2000E+01
      1.851  0.0000E+00  0.2000E+01
      1.980  0.0000E+00  0.2000E+01
      2.110  0.0000E+00  0.2000E+01
      2.239  0.0000E+00  0.2000E+01
      2.368  0.0000E+00  0.2000E+01
      2.498  0.0000E+00  0.2000E+01
      2.627  0.0000E+00  0.2000E+01
      2.756  0.0000E+00  0.2000E+01
      2.886  0.0000E+00  0.2000E+01
      3.015  0.0000E+00  0.2000E+01
      3.145  0.0000E+00  0.2000E+01
      3.274  0.0000E+00  0.2000E+01
      3.403  0.0000E+00  0.2000E+01
      3.533  0.0000E+00  0.2000E+01
      3.662  0.0000E+00  0.2000E+01
      3.791  0.0000E+00  0.2000E+01
      3.921  0.0000E+00  0.2000E+01
      4.050  0.0000E+00  0.2000E+01
      4.179  0.0000E+00  0.2000E+01
      4.309  0.0000E+00  0.2000E+01
      4.438  0.0000E+00  0.2000E+01
      4.567  0.0000E+00  0.2000E+01
      4.697  0.0000E+00  0.2000E+01
      4.826  0.0000E+00  0.2000E+01
      4.956  0.0000E+00  0.2000E+01
      5.085  0.0000E+00  0.2000E+01
      5.214  0.0000E+00  0.2000E+01
      5.344  0.0000E+00  0.2000E+01
      5.473  0.0000E+00  0.2000E+01
      5.602  0.0000E+00  0.2000E+01
      5.732  0.0000E+00  0.2000E+01
      5.861  0.0000E+00  0.2000E+01
      5.990  0.0000E+00  0.2000E+01
      6.120  0.0000E+00  0.2000E+01
      6.249  0.0000E+00  0.2000E+01
      6.378  0.0000E+00  0.2000E+01
      6.508  0.0000E+00  0.2000E+01
      6.637  0.0000E+00  0.2000E+01
      6.767  0.0000E+00  0.2000E+01
      6.896  0.0000E+00  0.2000E+01
      7.025  0.0000E+00  0.2000E+01
      7.155  0.0000E+00  0.2000E+01
      7.284  0.0000E+00  0.2000E+01
      7.413  0.0000E+00  0.2000E+01
      7.543  0.0000E+00  0.2000E+01
      7.672  0.0000E+00  0.2000E+01
      7.801  0.0000E+00  0.2000E+01
      7.931  0.0000E+00  0.2000E+01
      8.060  0.0000E+00  0.2000E+01
      8.189  0.0000E+00  0.2000E+01
      8.319  0.0000E+00  0.2000E+01
      8.448  0.0000E+00  0.2000E+01
      8.578  0.0000E+00  0.2000E+01
      8.707  0.0000E+00  0.2000E+01
      8.836  0.1717E-15  0.2000E+01
      8.966  0.1402E-09  0.2000E+01
      9.095  0.4208E-05  0.2000E+01
      9.224  0.5080E-02  0.2001E+01
      9.354  0.2844E+00  0.2037E+01
      9.483  0.9887E+00  0.2165E+01
      9.612  0.2636E+00  0.2199E+01
      9.742  0.2118E-01  0.2202E+01
      9.871  0.4801E+00  0.2264E+01
     10.000  0.9162E+00  0.2383E+01
     10.130  0.1319E+00  0.2400E+01
     10.259  0.1080E-02  0.2400E+01
     10.389  0.3904E-06  0.2400E+01
     10.518  0.5560E-11  0.2400E+01
     10.647  0.4291E-15  0.2400E+01
     10.777  0.2826E-09  0.2400E+01
     10.906  0.6997E-05  0.2400E+01
     11.035  0.7007E-02  0.2401E+01
     11.165  0.3296E+00  0.2444E+01
     11.294  0.9822E+00  0.2571E+01
     11.423  0.2242E+00  0.2600E+01
     11.553  0.3084E-02  0.2600E+01
     11.682  0.1932E-05  0.2600E+01
     11.811  0.4833E-10  0.2600E+01
     11.941  0.0000E+00  0.2600E+01
     12.070  0.0000E+00  0.2600E+01
     12.200  0.0000E+00  0.2600E+01
     12.329  0.0000E+00  0.2600E+01
     12.458  0.0000E+00  0.2600E+01
     12.588  0.6799E-12  0.2600E+01
     12.717  0.8076E-07  0.2600E+01
     12.846  0.3742E-03  0.2600E+01
     12.976  0.7454E-01  0.2610E+01
     13.105  0.8021E+00  0.2713E+01
     13.234  0.6338E+00  0.2795E+01
     13.364  0.3518E-01  0.2800E+01
     13.493  0.9982E-04  0.2800E+01
     13.622  0.1188E-07  0.2800E+01
     13.752  0.5459E-13  0.2800E+01
     13.881  0.0000E+00  0.2800E+01
     14.011  0.0000E+00  0.2800E+01
     14.140  0.0000E+00  0.2800E+01
     14.269  0.0000E+00  0.2800E+01
     14.399  0.0000E+00  0.2800E+01
     14.528  0.0000E+00  0.2800E+01
     14.657  0.0000E+00  0.2800E+01
     14.787  0.7724E-15  0.2800E+01
     14.916  0.4453E-09  0.2800E+01
     15.045  0.9716E-05  0.2800E+01
     15.175  0.8607E-02  0.2801E+01
     15.304  0.3613E+00  0.2848E+01
     15.433  0.9733E+00  0.2974E+01
     15.563  0.2004E+00  0.3000E+01
     15.692  0.2455E-02  0.3000E+01
     15.821  0.1359E-05  0.3000E+01
     15.951  0.2996E-10  0.3000E+01
     16.080  0.0000E+00  0.3000E+01
     16.210  0.0000E+00  0.3000E+01
     16.339  0.0000E+00  0.3000E+01
     16.468  0.0000E+00  0.3000E+01
     16.598  0.0000E+00  0.3000E+01
     16.727  0.0000E+00  0.3000E+01
     16.856  0.0000E+00  0.3000E+01
     16.986  0.0000E+00  0.3000E+01
     17.115  0.0000E+00  0.3000E+01
     17.244  0.0000E+00  0.3000E+01
     17.374  0.2506E-13  0.3000E+01
     17.503  0.6544E-08  0.3000E+01
     17.632  0.6579E-04  0.3000E+01
     17.762  0.2754E-01  0.3004E+01
     17.891  0.5804E+00  0.3079E+01
     18.021  0.8460E+00  0.3188E+01
     18.150  0.9152E-01  0.3200E+01
     18.279  0.5442E-03  0.3200E+01
     18.409  0.1403E-06  0.3200E+01
     18.538  0.1416E-11  0.3200E+01
     18.667  0.0000E+00  0.3200E+01
     18.797  0.0000E+00  0.3200E+01
     18.926  0.0000E+00  0.3200E+01
     19.055  0.0000E+00  0.3200E+01
     19.185  0.0000E+00  0.3200E+01
     19.314  0.0000E+00  0.3200E+01
     19.443  0.0000E+00  0.3200E+01
     19.573  0.0000E+00  0.3200E+01
     19.702  0.0000E+00  0.3200E+01
     19.832  0.0000E+00  0.3200E+01
     19.961  0.0000E+00  0.3200E+01
     20.090  0.0000E+00  0.3200E+01
     20.220  0.9473E-12  0.3200E+01
     20.349  0.1037E-06  0.3200E+01
     20.478  0.4434E-03  0.3200E+01
     20.608  0.8185E-01  0.3211E+01
     20.737  0.8224E+00  0.3317E+01
     20.866  0.6098E+00  0.3396E+01
     20.996  0.3155E-01  0.3400E+01
     21.125  0.8283E-04  0.3400E+01
     21.254  0.9092E-08  0.3400E+01
     21.384  0.3845E-13  0.3400E+01
     21.513  0.0000E+00  0.3400E+01
     21.643  0.0000E+00  0.3400E+01
     21.772  0.0000E+00  0.3400E+01
     21.901  0.0000E+00  0.3400E+01
     22.031  0.0000E+00  0.3400E+01
     22.160  0.0000E+00  0.3400E+01
     22.289  0.0000E+00  0.3400E+01
     22.419  0.0000E+00  0.3400E+01
     22.548  0.0000E+00  0.3400E+01
     22.677  0.0000E+00  0.3400E+01
     22.807  0.0000E+00  0.3400E+01
     22.936  0.0000E+00  0.3400E+01
     23.065  0.0000E+00  0.3400E+01
     23.195  0.2091E-12  0.3400E+01
     23.324  0.3307E-07  0.3400E+01
     23.454  0.2030E-03  0.3400E+01
     23.583  0.5292E-01  0.3407E+01
     23.712  0.7256E+00  0.3501E+01
     23.842  0.7164E+00  0.3593E+01
     23.971  0.5082E-01  0.3600E+01
     24.100  0.1890E-03  0.3600E+01
     24.230  0.2982E-07  0.3600E+01
     24.359  0.1825E-12  0.3600E+01
     24.488  0.0000E+00  0.3600E+01
     24.618  0.0000E+00  0.3600E+01
     24.747  0.0000E+00  0.3600E+01
     24.876  0.0000E+00  0.3600E+01
     25.006  0.0000E+00  0.3600E+01
     25.135  0.0000E+00  0.3600E+01
     25.265  0.0000E+00  0.3600E+01
     25.394  0.0000E+00  0.3600E+01
     25.523  0.0000E+00  0.3600E+01
     25.653  0.0000E+00  0.3600E+01
     25.782  0.0000E+00  0.3600E+01
     25.911  0.0000E+00  0.3600E+01
     26.041  0.0000E+00  0.3600E+01
     26.170  0.0000E+00  0.3600E+01
     26.299  0.4280E-12  0.3600E+01
     26.429  0.5693E-07  0.3600E+01
     26.558  0.2947E-03  0.3600E+01
     26.687  0.6529E-01  0.3608E+01
     26.817  0.7728E+00  0.3708E+01
     26.946  0.6668E+00  0.3795E+01
     27.075  0.4079E-01  0.3800E+01
     27.205  0.1288E-03  0.3800E+01
     27.334  0.1713E-07  0.3800E+01
     27.464  0.8823E-13  0.3800E+01
     27.593  0.0000E+00  0.3800E+01
     27.722  0.0000E+00  0.3800E+01
     27.852  0.0000E+00  0.3800E+01
     27.981  0.0000E+00  0.3800E+01
     28.110  0.0000E+00  0.3800E+01
     28.240  0.0000E+00  0.3800E+01
     28.369  0.0000E+00  0.3800E+01
     28.498  0.0000E+00  0.3800E+01
     28.628  0.0000E+00  0.3800E+01
     28.757  0.0000E+00  0.3800E+01
     28.886  0.0000E+00  0.3800E+01
     29.016  0.8583E-16  0.3800E+01
     29.145  0.4970E-10  0.3800E+01
     29.275  0.1972E-05  0.3800E+01
     29.404  0.3125E-02  0.3800E+01
     29.533  0.2256E+00  0.3830E+01
     29.663  0.9827E+00  0.3957E+01
     29.792  0.3278E+00  0.3999E+01
     29.921  0.6922E-02  0.4000E+01
     30.051  0.6863E-05  0.4000E+01
     30.180  0.2752E-09  0.4000E+01
     30.309  0.3433E-15  0.4000E+01
     30.439  0.0000E+00  0.4000E+01
     30.568  0.0000E+00  0.4000E+01
     30.697  0.0000E+00  0.4000E+01
     30.827  0.0000E+00  0.4000E+01
     30.956  0.0000E+00  0.4000E+01
     31.086  0.0000E+00  0.4000E+01
     31.215  0.0000E+00  0.4000E+01
     31.344  0.0000E+00  0.4000E+01
     31.474  0.0000E+00  0.4000E+01
     31.603  0.0000E+00  0.4000E+01
     31.732  0.0000E+00  0.4000E+01
     31.862  0.0000E+00  0.4000E+01
     31.991  0.0000E+00  0.4000E+01
     32.120  0.0000E+00  0.4000E+01
     32.250  0.0000E+00  0.4000E+01
     32.379  0.0000E+00  0.4000E+01
     32.508  0.0000E+00  0.4000E+01
     32.638  0.0000E+00  0.4000E+01
     32.767  0.0000E+00  0.4000E+01
     32.897  0.0000E+00  0.4000E+01
     33.026  0.0000E+00  0.4000E+01
     33.155  0.0000E+00  0.4000E+01
     33.285  0.0000E+00  0.4000E+01
     33.414  0.0000E+00  0.4000E+01
     33.543  0.0000E+00  0.4000E+01
     33.673  0.0000E+00  0.4000E+01
     33.802  0.0000E+00  0.4000E+01
     33.931  0.0000E+00  0.4000E+01
     34.061  0.0000E+00  0.4000E+01
     34.190  0.0000E+00  0.4000E+01
     34.319  0.0000E+00  0.4000E+01
     34.449  0.0000E+00  0.4000E+01
     34.578  0.0000E+00  0.4000E+01
     34.708  0.0000E+00  0.4000E+01
     34.837  0.0000E+00  0.4000E+01
     34.966  0.0000E+00  0.4000E+01
     35.096  0.0000E+00  0.4000E+01
     35.225  0.0000E+00  0.4000E+01
     35.354  0.2130E-10  0.4000E+01
     35.484  0.1057E-05  0.4000E+01
     35.613  0.2084E-02  0.4000E+01
     35.742  0.1847E+00  0.4024E+01
     35.872  0.9649E+00  0.4149E+01
     36.001  0.3845E+00  0.4199E+01
     36.130  0.9924E-02  0.4200E+01
     36.260  0.1222E-04  0.4200E+01
     36.389  0.6121E-09  0.4200E+01
     36.519  0.1202E-14  0.4200E+01
     36.648  0.0000E+00  0.4200E+01
     36.777  0.0000E+00  0.4200E+01
     36.907  0.0000E+00  0.4200E+01
     37.036  0.0000E+00  0.4200E+01
     37.165  0.0000E+00  0.4200E+01
     37.295  0.0000E+00  0.4200E+01
     37.424  0.0000E+00  0.4200E+01
     37.553  0.0000E+00  0.4200E+01
     37.683  0.0000E+00  0.4200E+01
     37.812  0.0000E+00  0.4200E+01
     37.941  0.0000E+00  0.4200E+01
     38.071  0.0000E+00  0.4200E+01
     38.200  0.0000E+00  0.4200E+01
     38.330  0.0000E+00  0.4200E+01
     38.459  0.2352E-13  0.4200E+01
     38.588  0.6227E-08  0.4200E+01
     38.718  0.6353E-04  0.4200E+01
     38.847  0.2698E-01  0.4203E+01
     38.976  0.5760E+00  0.4278E+01
     39.106  0.8494E+00  0.4388E+01
     39.235  0.9305E-01  0.4400E+01
     39.364  0.5611E-03  0.4400E+01
     39.494  0.1468E-06  0.4400E+01
     39.623  0.1504E-11  0.4400E+01
     39.752  0.0000E+00  0.4400E+01
     39.882  0.0000E+00  0.4400E+01
     40.011  0.0000E+00  0.4400E+01
     40.140  0.0000E+00  0.4400E+01
     40.270  0.0000E+00  0.4400E+01
     40.399  0.0000E+00  0.4400E+01
     40.529  0.0000E+00  0.4400E+01
     40.658  0.0000E+00  0.4400E+01
     40.787  0.0000E+00  0.4400E+01
     40.917  0.0000E+00  0.4400E+01
     41.046  0.0000E+00  0.4400E+01
     41.175  0.0000E+00  0.4400E+01
     41.305  0.0000E+00  0.4400E+01
     41.434  0.0000E+00  0.4400E+01
     41.563  0.0000E+00  0.4400E+01
     41.693  0.0000E+00  0.4400E+01
     41.822  0.0000E+00  0.4400E+01
     41.951  0.0000E+00  0.4400E+01
     42.081  0.0000E+00  0.4400E+01
     42.210  0.0000E+00  0.4400E+01
     42.340  0.2264E-12  0.4400E+01
     42.469  0.3513E-07  0.4400E+01
     42.598  0.2116E-03  0.4400E+01
     42.728  0.5419E-01  0.4407E+01
     42.857  0.7309E+00  0.4502E+01
     42.986  0.7110E+00  0.4594E+01
     43.116  0.4962E-01  0.4600E+01
     43.245  0.1813E-03  0.4600E+01
     43.374  0.2806E-07  0.4600E+01
     43.504  0.1684E-12  0.4600E+01
     43.633  0.0000E+00  0.4600E+01
     43.762  0.0000E+00  0.4600E+01
     43.892  0.0000E+00  0.4600E+01
     44.021  0.0000E+00  0.4600E+01
     44.151  0.0000E+00  0.4600E+01
     44.280  0.0000E+00  0.4600E+01
     44.409  0.0000E+00  0.4600E+01
     44.539  0.0000E+00  0.4600E+01
     44.668  0.0000E+00  0.4600E+01
     44.797  0.0000E+00  0.4600E+01
     44.927  0.0000E+00  0.4600E+01
     45.056  0.0000E+00  0.4600E+01
     45.185  0.0000E+00  0.4600E+01
     45.315  0.0000E+00  0.4600E+01
     45.444  0.0000E+00  0.4600E+01
     45.573  0.0000E+00  0.4600E+01
     45.703  0.0000E+00  0.4600E+01
     45.832  0.0000E+00  0.4600E+01
     45.962  0.0000E+00  0.4600E+01
     46.091  0.0000E+00  0.4600E+01
     46.220  0.0000E+00  0.4600E+01
     46.350  0.0000E+00  0.4600E+01
     46.479  0.1311E-12  0.4600E+01
     46.608  0.2319E-07  0.4600E+01
     46.738  0.1589E-03  0.4600E+01
     46.867  0.4602E-01  0.4606E+01
     46.996  0.6940E+00  0.4696E+01
     47.126  0.7474E+00  0.4792E+01
     47.255  0.5830E-01  0.4800E+01
     47.384  0.2409E-03  0.4800E+01
     47.514  0.4241E-07  0.4800E+01
     47.643  0.2903E-12  0.4800E+01
     47.773  0.0000E+00  0.4800E+01
     47.902  0.0000E+00  0.4800E+01
     48.031  0.0000E+00  0.4800E+01
     48.161  0.0000E+00  0.4800E+01
     48.290  0.0000E+00  0.4800E+01
     48.419  0.0000E+00  0.4800E+01
     48.549  0.0000E+00  0.4800E+01
     48.678  0.0000E+00  0.4800E+01
     48.807  0.0000E+00  0.4800E+01
     48.937  0.0000E+00  0.4800E+01
     49.066  0.0000E+00  0.4800E+01
     49.195  0.0000E+00  0.4800E+01
     49.325  0.0000E+00  0.4800E+01
     49.454  0.0000E+00  0.4800E+01
     49.584  0.0000E+00  0.4800E+01
     49.713  0.0000E+00  0.4800E+01
     49.842  0.0000E+00  0.4800E+01
     49.972  0.0000E+00  0.4800E+01
     50.101  0.0000E+00  0.4800E+01
     50.230  0.0000E+00  0.4800E+01
     50.360  0.0000E+00  0.4800E+01
     50.489  0.0000E+00  0.4800E+01
     50.618  0.0000E+00  0.4800E+01
     50.748  0.4197E-12  0.4800E+01
     50.877  0.5609E-07  0.4800E+01
     51.006  0.2918E-03  0.4800E+01
     51.136  0.6492E-01  0.4808E+01
     51.265  0.7715E+00  0.4908E+01
     51.394  0.6682E+00  0.4995E+01
     51.524  0.4104E-01  0.5000E+01
     51.653  0.1302E-03  0.5000E+01
     51.783  0.1740E-07  0.5000E+01
     51.912  0.8986E-13  0.5000E+01
     52.041  0.0000E+00  0.5000E+01
     52.171  0.0000E+00  0.5000E+01
     52.300  0.0000E+00  0.5000E+01
     52.429  0.0000E+00  0.5000E+01
     52.559  0.0000E+00  0.5000E+01
     52.688  0.0000E+00  0.5000E+01
     52.817  0.0000E+00  0.5000E+01
     52.947  0.0000E+00  0.5000E+01
     53.076  0.0000E+00  0.5000E+01
     53.205  0.0000E+00  0.5000E+01
     53.335  0.0000E+00  0.5000E+01
     53.464  0.0000E+00  0.5000E+01
     53.594  0.0000E+00  0.5000E+01
     53.723  0.0000E+00  0.5000E+01
     53.852  0.0000E+00  0.5000E+01
     53.982  0.0000E+00  0.5000E+01
     54.111  0.0000E+00  0.5000E+01
     54.240  0.0000E+00  0.5000E+01
     54.370  0.0000E+00  0.5000E+01
     54.499  0.0000E+00  0.5000E+01
     54.628  0.0000E+00  0.5000E+01
     54.758  0.0000E+00  0.5000E+01
     54.887  0.0000E+00  0.5000E+01
     55.016  0.9355E-14  0.5000E+01
     55.146  0.3063E-08  0.5000E+01
     55.275  0.3853E-04  0.5000E+01
     55.405  0.2002E-01  0.5003E+01
     55.534  0.5141E+00  0.5069E+01
     55.663  0.8943E+00  0.5185E+01
     55.793  0.1168E+00  0.5200E+01
     55.922  0.8576E-03  0.5200E+01
     56.051  0.2761E-06  0.5200E+01
     56.181  0.3494E-11  0.5200E+01
     56.310  0.0000E+00  0.5200E+01
     56.439  0.0000E+00  0.5200E+01
     56.569  0.0000E+00  0.5200E+01
     56.698  0.0000E+00  0.5200E+01
     56.827  0.0000E+00  0.5200E+01
     56.957  0.0000E+00  0.5200E+01
     57.086  0.0000E+00  0.5200E+01
     57.216  0.0000E+00  0.5200E+01
     57.345  0.0000E+00  0.5200E+01
     57.474  0.0000E+00  0.5200E+01
     57.604  0.0000E+00  0.5200E+01
     57.733  0.0000E+00  0.5200E+01
     57.862  0.0000E+00  0.5200E+01
     57.992  0.0000E+00  0.5200E+01
     58.121  0.0000E+00  0.5200E+01
     58.250  0.0000E+00  0.5200E+01
     58.380  0.0000E+00  0.5200E+01
     58.509  0.0000E+00  0.5200E+01
     58.638  0.0000E+00  0.5200E+01
     58.768  0.0000E+00  0.5200E+01
     58.897  0.0000E+00  0.5200E+01
     59.027  0.0000E+00  0.5200E+01
     59.156  0.3004E-14  0.5200E+01
     59.285  0.1271E-08  0.5200E+01
     59.415  0.2061E-04  0.5200E+01
     59.544  0.1370E-01  0.5202E+01
     59.673  0.4410E+00  0.5259E+01
     59.803  0.9385E+00  0.5380E+01
     59.932  0.1515E+00  0.5400E+01
     60.061  0.1411E-02  0.5400E+01
     60.191  0.5838E-06  0.5400E+01
     60.320  0.9553E-11  0.5400E+01
     60.449  0.0000E+00  0.5400E+01
     60.579  0.0000E+00  0.5400E+01
     60.708  0.0000E+00  0.5400E+01
     60.838  0.0000E+00  0.5400E+01
     60.967  0.0000E+00  0.5400E+01
     61.096  0.0000E+00  0.5400E+01
     61.226  0.0000E+00  0.5400E+01
     61.355  0.0000E+00  0.5400E+01
     61.484  0.0000E+00  0.5400E+01
     61.614  0.0000E+00  0.5400E+01
     61.743  0.0000E+00  0.5400E+01
     61.872  0.0000E+00  0.5400E+01
     62.002  0.0000E+00  0.5400E+01
     62.131  0.0000E+00  0.5400E+01
     62.260  0.0000E+00  0.5400E+01
     62.390  0.0000E+00  0.5400E+01
     62.519  0.0000E+00  0.5400E+01
     62.649  0.0000E+00  0.5400E+01
     62.778  0.1588E-12  0.5400E+01
     62.907  0.2676E-07  0.5400E+01
     63.037  0.1751E-03  0.5400E+01
     63.166  0.4861E-01  0.5406E+01
     63.295  0.7060E+00  0.5498E+01
     63.425  0.7357E+00  0.5593E+01
     63.554  0.5541E-01  0.5600E+01
     63.683  0.2205E-03  0.5600E+01
     63.813  0.3740E-07  0.5600E+01
     63.942  0.2467E-12  0.5600E+01
     64.071  0.0000E+00  0.5600E+01
     64.201  0.0000E+00  0.5600E+01
     64.330  0.0000E+00  0.5600E+01
     64.459  0.0000E+00  0.5600E+01
     64.589  0.0000E+00  0.5600E+01
     64.718  0.0000E+00  0.5600E+01
     64.848  0.0000E+00  0.5600E+01
     64.977  0.0000E+00  0.5600E+01
     65.106  0.4291E-15  0.5600E+01
     65.236  0.2782E-09  0.5600E+01
     65.365  0.6916E-05  0.5600E+01
     65.494  0.6955E-02  0.5601E+01
     65.624  0.3285E+00  0.5643E+01
     65.753  0.9825E+00  0.5770E+01
     65.882  0.2251E+00  0.5800E+01
     66.012  0.3110E-02  0.5800E+01
     66.141  0.2360E-05  0.5800E+01
     66.270  0.1090E-02  0.5800E+01
     66.400  0.1318E+00  0.5817E+01
     66.529  0.9268E+00  0.5937E+01
     66.659  0.9041E+00  0.6054E+01
     66.788  0.1022E+01  0.6186E+01
     66.917  0.6123E+00  0.6265E+01
     67.047  0.2576E+00  0.6299E+01
     67.176  0.5724E-01  0.6306E+01
     67.305  0.4267E+00  0.6361E+01
     67.435  0.3188E+00  0.6403E+01
     67.564  0.4014E+00  0.6455E+01
     67.693  0.3349E+00  0.6498E+01
     67.823  0.2522E+00  0.6530E+01
     67.952  0.1163E+01  0.6681E+01
     68.081  0.8182E+00  0.6787E+01
     68.211  0.1016E+00  0.6800E+01
     68.340  0.1086E-02  0.6800E+01
     68.470  0.2349E-02  0.6800E+01
     68.599  0.1371E+00  0.6818E+01
     68.728  0.4945E+00  0.6882E+01
     68.858  0.1370E+00  0.6900E+01
     68.987  0.3409E-01  0.6904E+01
     69.116  0.3833E+00  0.6954E+01
     69.246  0.3368E+00  0.6997E+01
     69.375  0.2102E-01  0.7000E+01
     69.504  0.3210E-03  0.7000E+01
     69.634  0.4400E-01  0.7006E+01
     69.763  0.4189E+00  0.7060E+01
     69.892  0.3001E+00  0.7099E+01
     70.022  0.2014E+00  0.7125E+01
     70.151  0.4845E+00  0.7187E+01
     70.281  0.9586E-01  0.7200E+01
     70.410  0.1292E-02  0.7200E+01
     70.539  0.3527E-01  0.7205E+01
     70.669  0.4034E+00  0.7257E+01
     70.798  0.6430E+00  0.7340E+01
     70.927  0.9672E+00  0.7465E+01
     71.057  0.4947E+00  0.7529E+01
     71.186  0.9889E+00  0.7657E+01
     71.315  0.3258E+00  0.7699E+01
     71.445  0.6832E-02  0.7700E+01
     71.574  0.2092E-04  0.7700E+01
     71.703  0.8324E-02  0.7701E+01
     71.833  0.2388E+00  0.7732E+01
     71.962  0.4588E+00  0.7791E+01
     72.092  0.6653E-01  0.7800E+01
     72.221  0.5491E-03  0.7800E+01
     72.350  0.2000E-06  0.7800E+01
     72.480  0.2873E-11  0.7800E+01
     72.609  0.8088E-10  0.7800E+01
     72.738  0.2334E-05  0.7800E+01
     72.868  0.2713E-02  0.7800E+01
     72.997  0.1472E+00  0.7819E+01
     73.126  0.5770E+00  0.7894E+01
     73.256  0.8953E+00  0.8010E+01
     73.385  0.6486E+00  0.8094E+01
     73.514  0.4807E-01  0.8100E+01
     73.644  0.2246E-03  0.8100E+01
     73.773  0.4900E-07  0.8100E+01
     73.903  0.2420E-10  0.8100E+01
     74.032  0.9541E-06  0.8100E+01
     74.161  0.1530E-02  0.8100E+01
     74.291  0.1117E+00  0.8115E+01
     74.420  0.4910E+00  0.8178E+01
     74.549  0.1653E+00  0.8200E+01
     74.679  0.3529E-02  0.8200E+01
     74.808  0.3540E-05  0.8200E+01
     74.937  0.1436E-09  0.8200E+01
     75.067  0.3648E-14  0.8200E+01
     75.196  0.1215E-08  0.8200E+01
     75.325  0.1635E-04  0.8200E+01
     75.455  0.9069E-02  0.8201E+01
     75.584  0.2472E+00  0.8233E+01
     75.713  0.4582E+00  0.8292E+01
     75.843  0.2493E+00  0.8325E+01
     75.972  0.4851E+00  0.8387E+01
     76.102  0.9606E-01  0.8400E+01
     76.231  0.1127E-02  0.8400E+01
     76.360  0.5963E-06  0.8400E+01
     76.490  0.1254E-10  0.8400E+01
     76.619  0.0000E+00  0.8400E+01
     76.748  0.0000E+00  0.8400E+01
     76.878  0.2016E-10  0.8400E+01
     77.007  0.8455E-06  0.8400E+01
     77.136  0.1415E-02  0.8400E+01
     77.266  0.1075E+00  0.8414E+01
     77.395  0.4896E+00  0.8477E+01
     77.524  0.1707E+00  0.8500E+01
     77.654  0.3790E-02  0.8500E+01
     77.783  0.3966E-05  0.8500E+01
     77.913  0.1681E-09  0.8500E+01
     78.042  0.2575E-15  0.8500E+01
     78.171  0.0000E+00  0.8500E+01
     78.301  0.0000E+00  0.8500E+01
     78.430  0.0000E+00  0.8500E+01
     78.559  0.0000E+00  0.8500E+01
     78.689  0.0000E+00  0.8500E+01
     78.818  0.0000E+00  0.8500E+01
     78.947  0.0000E+00  0.8500E+01
     79.077  0.0000E+00  0.8500E+01
     79.206  0.0000E+00  0.8500E+01
     79.335  0.0000E+00  0.8500E+01
     79.465  0.0000E+00  0.8500E+01
     79.594  0.0000E+00  0.8500E+01
     79.724  0.0000E+00  0.8500E+01
     79.853  0.0000E+00  0.8500E+01
     79.982  0.0000E+00  0.8500E+01
     80.112  0.0000E+00  0.8500E+01
     80.241  0.0000E+00  0.8500E+01
     80.370  0.0000E+00  0.8500E+01
     80.500  0.0000E+00  0.8500E+01
     80.629  0.0000E+00  0.8500E+01
     80.758  0.0000E+00  0.8500E+01
     80.888  0.0000E+00  0.8500E+01
     81.017  0.8583E-16  0.8500E+01
     81.146  0.6748E-10  0.8500E+01
     81.276  0.2046E-05  0.8500E+01
     81.405  0.2495E-02  0.8500E+01
     81.535  0.1411E+00  0.8519E+01
     81.664  0.5181E+00  0.8586E+01
     81.793  0.4835E+00  0.8648E+01
     81.923  0.3725E+00  0.8696E+01
     82.052  0.2829E-01  0.8700E+01
     82.181  0.1142E-03  0.8700E+01
     82.311  0.2086E-04  0.8700E+01
     82.440  0.1049E-01  0.8701E+01
     82.569  0.2618E+00  0.8735E+01
     82.699  0.4469E+00  0.8793E+01
     82.828  0.2097E+00  0.8820E+01
     82.957  0.4942E+00  0.8884E+01
     83.087  0.1888E+00  0.8909E+01
     83.216  0.4614E+00  0.8968E+01
     83.346  0.2376E+00  0.8999E+01
     83.475  0.8219E-02  0.9000E+01
     83.604  0.1390E-04  0.9000E+01
     83.734  0.9669E-09  0.9000E+01
     83.863  0.2575E-14  0.9000E+01
     83.992  0.0000E+00  0.9000E+01
     84.122  0.0000E+00  0.9000E+01
     84.251  0.0000E+00  0.9000E+01
     84.380  0.0000E+00  0.9000E+01
     84.510  0.0000E+00  0.9000E+01
     84.639  0.0000E+00  0.9000E+01
     84.768  0.0000E+00  0.9000E+01
     84.898  0.0000E+00  0.9000E+01
     85.027  0.0000E+00  0.9000E+01
     85.157  0.0000E+00  0.9000E+01
     85.286  0.0000E+00  0.9000E+01
     85.415  0.0000E+00  0.9000E+01
     85.545  0.0000E+00  0.9000E+01
     85.674  0.1751E-13  0.9000E+01
     85.803  0.4226E-08  0.9000E+01
     85.933  0.3935E-04  0.9000E+01
     86.062  0.1531E-01  0.9002E+01
     86.191  0.3016E+00  0.9041E+01
     86.321  0.4139E+00  0.9095E+01
     86.450  0.4197E-01  0.9100E+01
     86.579  0.2321E-03  0.9100E+01
     86.709  0.5548E-07  0.9100E+01
     86.838  0.5182E-12  0.9100E+01
     86.968  0.0000E+00  0.9100E+01
     87.097  0.0000E+00  0.9100E+01
     87.226  0.2399E-13  0.9100E+01
     87.356  0.5381E-08  0.9100E+01
     87.485  0.4659E-04  0.9100E+01
     87.614  0.1690E-01  0.9102E+01
     87.744  0.3125E+00  0.9143E+01
     87.873  0.4140E+00  0.9196E+01
     88.002  0.2871E+00  0.9233E+01
     88.132  0.4530E+00  0.9292E+01
     88.261  0.6210E-01  0.9300E+01
     88.390  0.4816E-03  0.9300E+01
     88.520  0.1643E-06  0.9300E+01
     88.649  0.2206E-11  0.9300E+01
     88.778  0.0000E+00  0.9300E+01
     88.908  0.0000E+00  0.9300E+01
     89.037  0.0000E+00  0.9300E+01
     89.167  0.0000E+00  0.9300E+01
     89.296  0.0000E+00  0.9300E+01
     89.425  0.0000E+00  0.9300E+01
     89.555  0.0000E+00  0.9300E+01
     89.684  0.0000E+00  0.9300E+01
     89.813  0.0000E+00  0.9300E+01
     89.943  0.0000E+00  0.9300E+01
     90.072  0.0000E+00  0.9300E+01