   1   1   1   0
  0.2957216E+01  0.1435361E-09  0.1435361E-09  0.1435361E-09  0.5000000E-15
  1.000000000000000E-004
  CAR 
 jump2                                   
    214.18105389    -24.45010938 2001     -9.23177981      1.00000000
    -24.450  0.0000E+00  0.0000E+00
    -24.331  0.0000E+00  0.0000E+00
    -24.211  0.0000E+00  0.0000E+00
    -24.092  0.0000E+00  0.0000E+00
    -23.973  0.0000E+00  0.0000E+00
    -23.854  0.0000E+00  0.0000E+00
    -23.734  0.0000E+00  0.0000E+00
    -23.615  0.0000E+00  0.0000E+00
    -23.496  0.0000E+00  0.0000E+00
    -23.376  0.0000E+00  0.0000E+00
    -23.257  0.0000E+00  0.0000E+00
    -23.138  0.0000E+00  0.0000E+00
    -23.018  0.0000E+00  0.0000E+00
    -22.899  0.0000E+00  0.0000E+00
    -22.780  0.0000E+00  0.0000E+00
    -22.660  0.0000E+00  0.0000E+00
    -22.541  0.0000E+00  0.0000E+00
    -22.422  0.0000E+00  0.0000E+00
    -22.302  0.0000E+00  0.0000E+00
    -22.183  0.0000E+00  0.0000E+00
    -22.064  0.0000E+00  0.0000E+00
    -21.944  0.0000E+00  0.0000E+00
    -21.825  0.0000E+00  0.0000E+00
    -21.706  0.0000E+00  0.0000E+00
    -21.587  0.0000E+00  0.0000E+00
    -21.467  0.0000E+00  0.0000E+00
    -21.348  0.0000E+00  0.0000E+00
    -21.229  0.0000E+00  0.0000E+00
    -21.109  0.0000E+00  0.0000E+00
    -20.990  0.0000E+00  0.0000E+00
    -20.871  0.0000E+00  0.0000E+00
    -20.751  0.0000E+00  0.0000E+00
    -20.632  0.0000E+00  0.0000E+00
    -20.513  0.0000E+00  0.0000E+00
    -20.393  0.0000E+00  0.0000E+00
    -20.274  0.0000E+00  0.0000E+00
    -20.155  0.0000E+00  0.0000E+00
    -20.035  0.0000E+00  0.0000E+00
    -19.916  0.0000E+00  0.0000E+00
    -19.797  0.0000E+00  0.0000E+00
    -19.677  0.0000E+00  0.0000E+00
    -19.558  0.0000E+00  0.0000E+00
    -19.439  0.0000E+00  0.0000E+00
    -19.320  0.0000E+00  0.0000E+00
    -19.200  0.0000E+00  0.0000E+00
    -19.081  0.0000E+00  0.0000E+00
    -18.962  0.0000E+00  0.0000E+00
    -18.842  0.0000E+00  0.0000E+00
    -18.723  0.0000E+00  0.0000E+00
    -18.604  0.0000E+00  0.0000E+00
    -18.484  0.0000E+00  0.0000E+00
    -18.365  0.0000E+00  0.0000E+00
    -18.246  0.0000E+00  0.0000E+00
    -18.126  0.0000E+00  0.0000E+00
    -18.007  0.0000E+00  0.0000E+00
    -17.888  0.0000E+00  0.0000E+00
    -17.768  0.0000E+00  0.0000E+00
    -17.649  0.0000E+00  0.0000E+00
    -17.530  0.0000E+00  0.0000E+00
    -17.410  0.0000E+00  0.0000E+00
    -17.291  0.0000E+00  0.0000E+00
    -17.172  0.0000E+00  0.0000E+00
    -17.053  0.0000E+00  0.0000E+00
    -16.933  0.0000E+00  0.0000E+00
    -16.814  0.0000E+00  0.0000E+00
    -16.695  0.0000E+00  0.0000E+00
    -16.575  0.0000E+00  0.0000E+00
    -16.456  0.0000E+00  0.0000E+00
    -16.337  0.0000E+00  0.0000E+00
    -16.217  0.0000E+00  0.0000E+00
    -16.098  0.0000E+00  0.0000E+00
    -15.979  0.0000E+00  0.0000E+00
    -15.859  0.0000E+00  0.0000E+00
    -15.740  0.0000E+00  0.0000E+00
    -15.621  0.0000E+00  0.0000E+00
    -15.501  0.0000E+00  0.0000E+00
    -15.382  0.0000E+00  0.0000E+00
    -15.263  0.0000E+00  0.0000E+00
    -15.143  0.0000E+00  0.0000E+00
    -15.024  0.0000E+00  0.0000E+00
    -14.905  0.0000E+00  0.0000E+00
    -14.786  0.0000E+00  0.0000E+00
    -14.666  0.0000E+00  0.0000E+00
    -14.547  0.0000E+00  0.0000E+00
    -14.428  0.0000E+00  0.0000E+00
    -14.308  0.0000E+00  0.0000E+00
    -14.189  0.4652E-16  0.5551E-17
    -14.070  0.1782E-10  0.2126E-11
    -13.950  0.3931E-06  0.4691E-07
    -13.831  0.5727E-03  0.6837E-04
    -13.712  0.6278E-01  0.7559E-02
    -13.592  0.6584E+00  0.8611E-01
    -13.473  0.9720E+00  0.2021E+00
    -13.354  0.6359E+00  0.2780E+00
    -13.234  0.3129E+00  0.3153E+00
    -13.115  0.5053E+00  0.3756E+00
    -12.996  0.2034E+00  0.3999E+00
    -12.876  0.1899E+00  0.4225E+00
    -12.757  0.5023E+00  0.4825E+00
    -12.638  0.1435E+00  0.4996E+00
    -12.519  0.2657E-01  0.5027E+00
    -12.399  0.3192E+00  0.5408E+00
    -12.280  0.4349E+00  0.5927E+00
    -12.161  0.6029E-01  0.5999E+00
    -12.041  0.4285E-02  0.6004E+00
    -11.922  0.1416E+00  0.6173E+00
    -11.803  0.5020E+00  0.6772E+00
    -11.683  0.1847E+00  0.6993E+00
    -11.564  0.6254E-02  0.7000E+00
    -11.445  0.8756E-03  0.7001E+00
    -11.325  0.6745E-01  0.7082E+00
    -11.206  0.4471E+00  0.7615E+00
    -11.087  0.3027E+00  0.7976E+00
    -10.967  0.1990E-01  0.8000E+00
    -10.848  0.1032E-03  0.8000E+00
    -10.729  0.6171E-03  0.8001E+00
    -10.610  0.5620E-01  0.8068E+00
    -10.490  0.4270E+00  0.8577E+00
    -10.371  0.3292E+00  0.8970E+00
    -10.252  0.2491E-01  0.9000E+00
    -10.132  0.1497E-03  0.9000E+00
    -10.013  0.1960E-05  0.9000E+00
     -9.894  0.1572E-02  0.9002E+00
     -9.774  0.9314E-01  0.9113E+00
     -9.655  0.4779E+00  0.9683E+00
     -9.536  0.2527E+00  0.9985E+00
     -9.416  0.1271E-01  0.1000E+01
     -9.297  0.4919E-04  0.1000E+01
     -9.178  0.2290E-07  0.1000E+01
     -9.058  0.4173E-04  0.1000E+01
     -8.939  0.1149E-01  0.1001E+01
     -8.820  0.2421E+00  0.1030E+01
     -8.700  0.4831E+00  0.1088E+01
     -8.581  0.9952E-01  0.1100E+01
     -8.462  0.1784E-02  0.1100E+01
     -8.343  0.2298E-05  0.1100E+01
     -8.223  0.6047E-09  0.1100E+01
     -8.104  0.4050E-05  0.1100E+01
     -7.985  0.2593E-02  0.1100E+01
     -7.865  0.1205E+00  0.1115E+01
     -7.746  0.4955E+00  0.1174E+01
     -7.627  0.2111E+00  0.1199E+01
     -7.507  0.8386E-02  0.1200E+01
     -7.388  0.2518E-04  0.1200E+01
     -7.269  0.5027E-08  0.1200E+01
     -7.149  0.4147E-09  0.1200E+01
     -7.030  0.4065E-05  0.1200E+01
     -6.911  0.2599E-02  0.1200E+01
     -6.791  0.1207E+00  0.1215E+01
     -6.672  0.4956E+00  0.1274E+01
     -6.553  0.2109E+00  0.1299E+01
     -6.433  0.8368E-02  0.1300E+01
     -6.314  0.2510E-04  0.1300E+01
     -6.195  0.5004E-08  0.1300E+01
     -6.076  0.8621E-12  0.1300E+01
     -5.956  0.3612E-07  0.1300E+01
     -5.837  0.1031E-03  0.1300E+01
     -5.718  0.1994E-01  0.1302E+01
     -5.598  0.3029E+00  0.1339E+01
     -5.479  0.4470E+00  0.1392E+01
     -5.360  0.6735E-01  0.1400E+01
     -5.240  0.8573E-03  0.1400E+01
     -5.121  0.7697E-06  0.1400E+01
     -5.002  0.4447E-10  0.1400E+01
     -4.882  0.2077E-12  0.1400E+01
     -4.763  0.1273E-07  0.1400E+01
     -4.644  0.4911E-04  0.1400E+01
     -4.524  0.1270E-01  0.1402E+01
     -4.405  0.2526E+00  0.1432E+01
     -4.286  0.4780E+00  0.1489E+01
     -4.166  0.9321E-01  0.1500E+01
     -4.047  0.1574E-02  0.1500E+01
     -3.928  0.1902E-05  0.1500E+01
     -3.809  0.1490E-09  0.1500E+01
     -3.689  0.1768E-14  0.1500E+01
     -3.570  0.1954E-09  0.1500E+01
     -3.451  0.2328E-05  0.1500E+01
     -3.331  0.1800E-02  0.1500E+01
     -3.212  0.9996E-01  0.1512E+01
     -3.093  0.4835E+00  0.1570E+01
     -2.973  0.2414E+00  0.1599E+01
     -2.854  0.1141E-01  0.1600E+01
     -2.735  0.4127E-04  0.1600E+01
     -2.615  0.9987E-08  0.1600E+01
     -2.496  0.1519E-12  0.1600E+01
     -2.377  0.4611E-11  0.1600E+01
     -2.257  0.1384E-06  0.1600E+01
     -2.138  0.2642E-03  0.1600E+01
     -2.019  0.3474E-01  0.1604E+01
     -1.899  0.3696E+00  0.1648E+01
     -1.780  0.3915E+00  0.1695E+01
     -1.661  0.4160E-01  0.1700E+01
     -1.542  0.3617E-03  0.1700E+01
     -1.422  0.2178E-06  0.1700E+01
     -1.303  0.8389E-11  0.1700E+01
     -1.184  0.2261E-08  0.1700E+01
     -1.064  0.1411E-04  0.1700E+01
     -0.945  0.5812E-02  0.1701E+01
     -0.826  0.1785E+00  0.1722E+01
     -0.706  0.5028E+00  0.1782E+01
     -0.587  0.1471E+00  0.1800E+01
     -0.468  0.3872E-02  0.1800E+01
     -0.348  0.7495E-05  0.1800E+01
     -0.229  0.2188E-05  0.1800E+01
     -0.110  0.1726E-02  0.1800E+01
      0.010  0.9783E-01  0.1812E+01
      0.129  0.4818E+00  0.1869E+01
      0.248  0.2489E+00  0.1899E+01
      0.368  0.1607E+00  0.1918E+01
      0.487  0.5031E+00  0.1978E+01
      0.606  0.1765E+00  0.1999E+01
      0.725  0.5671E-02  0.2000E+01
      0.845  0.1357E-04  0.2000E+01
      0.964  0.2144E-08  0.2000E+01
      1.083  0.2122E-13  0.2000E+01
      1.203  0.0000E+00  0.2000E+01
      1.322  0.0000E+00  0.2000E+01
      1.441  0.0000E+00  0.2000E+01
      1.561  0.0000E+00  0.2000E+01
      1.680  0.0000E+00  0.2000E+01
      1.799  0.0000E+00  0.2000E+01
      1.919  0.0000E+00  0.2000E+01
      2.038  0.0000E+00  0.2000E+01
      2.157  0.0000E+00  0.2000E+01
      2.277  0.0000E+00  0.2000E+01
      2.396  0.0000E+00  0.2000E+01
      2.515  0.0000E+00  0.2000E+01
      2.635  0.0000E+00  0.2000E+01
      2.754  0.0000E+00  0.2000E+01
      2.873  0.0000E+00  0.2000E+01
      2.992  0.0000E+00  0.2000E+01
      3.112  0.0000E+00  0.2000E+01
      3.231  0.0000E+00  0.2000E+01
      3.350  0.0000E+00  0.2000E+01
      3.470  0.0000E+00  0.2000E+01
      3.589  0.0000E+00  0.2000E+01
      3.708  0.0000E+00  0.2000E+01
      3.828  0.0000E+00  0.2000E+01
      3.947  0.0000E+00  0.2000E+01
      4.066  0.0000E+00  0.2000E+01
      4.186  0.0000E+00  0.2000E+01
      4.305  0.0000E+00  0.2000E+01
      4.424  0.0000E+00  0.2000E+01
      4.544  0.0000E+00  0.2000E+01
      4.663  0.0000E+00  0.2000E+01
      4.782  0.0000E+00  0.2000E+01
      4.902  0.0000E+00  0.2000E+01
      5.021  0.0000E+00  0.2000E+01
      5.140  0.0000E+00  0.2000E+01
      5.259  0.0000E+00  0.2000E+01
      5.379  0.0000E+00  0.2000E+01
      5.498  0.0000E+00  0.2000E+01
      5.617  0.0000E+00  0.2000E+01
      5.737  0.0000E+00  0.2000E+01
      5.856  0.0000E+00  0.2000E+01
      5.975  0.0000E+00  0.2000E+01
      6.095  0.0000E+00  0.2000E+01
      6.214  0.0000E+00  0.2000E+01
      6.333  0.0000E+00  0.2000E+01
      6.453  0.0000E+00  0.2000E+01
      6.572  0.0000E+00  0.2000E+01
      6.691  0.0000E+00  0.2000E+01
      6.811  0.0000E+00  0.2000E+01
      6.930  0.0000E+00  0.2000E+01
      7.049  0.0000E+00  0.2000E+01
      7.169  0.0000E+00  0.2000E+01
      7.288  0.0000E+00  0.2000E+01
      7.407  0.0000E+00  0.2000E+01
      7.526  0.0000E+00  0.2000E+01
      7.646  0.0000E+00  0.2000E+01
      7.765  0.0000E+00  0.2000E+01
      7.884  0.0000E+00  0.2000E+01
      8.004  0.0000E+00  0.2000E+01
      8.123  0.0000E+00  0.2000E+01
      8.242  0.0000E+00  0.2000E+01
      8.362  0.0000E+00  0.2000E+01
      8.481  0.0000E+00  0.2000E+01
      8.600  0.0000E+00  0.2000E+01
      8.720  0.0000E+00  0.2000E+01
      8.839  0.1396E-15  0.2000E+01
      8.958  0.3837E-10  0.2000E+01
      9.078  0.6889E-06  0.2000E+01
      9.197  0.7953E-03  0.2000E+01
      9.316  0.6464E-01  0.2008E+01
      9.436  0.4426E+00  0.2061E+01
      9.555  0.3090E+00  0.2097E+01
      9.674  0.2565E-01  0.2101E+01
      9.793  0.1607E+00  0.2120E+01
      9.913  0.5038E+00  0.2180E+01
     10.032  0.1642E+00  0.2199E+01
     10.151  0.4868E-02  0.2200E+01
     10.271  0.1069E-04  0.2200E+01
     10.390  0.1546E-08  0.2200E+01
     10.509  0.4193E-12  0.2200E+01
     10.629  0.2138E-07  0.2200E+01
     10.748  0.7109E-04  0.2200E+01
     10.867  0.1593E-01  0.2202E+01
     10.987  0.2773E+00  0.2235E+01
     11.106  0.4640E+00  0.2290E+01
     11.225  0.7970E-01  0.2300E+01
     11.345  0.1171E-02  0.2300E+01
     11.464  0.1222E-05  0.2300E+01
     11.583  0.8240E-10  0.2300E+01
     11.703  0.3722E-15  0.2300E+01
     11.822  0.0000E+00  0.2300E+01
     11.941  0.0000E+00  0.2300E+01
     12.060  0.0000E+00  0.2300E+01
     12.180  0.8328E-11  0.2300E+01
     12.299  0.2170E-06  0.2300E+01
     12.418  0.3609E-03  0.2300E+01
     12.538  0.4155E-01  0.2305E+01
     12.657  0.3914E+00  0.2352E+01
     12.776  0.3698E+00  0.2396E+01
     12.896  0.3479E-01  0.2400E+01
     13.015  0.2649E-03  0.2400E+01
     13.134  0.1388E-06  0.2400E+01
     13.254  0.4632E-11  0.2400E+01
     13.373  0.0000E+00  0.2400E+01
     13.492  0.0000E+00  0.2400E+01
     13.612  0.0000E+00  0.2400E+01
     13.731  0.0000E+00  0.2400E+01
     13.850  0.0000E+00  0.2400E+01
     13.970  0.0000E+00  0.2400E+01
     14.089  0.2295E-11  0.2400E+01
     14.208  0.8117E-07  0.2400E+01
     14.327  0.1822E-03  0.2400E+01
     14.447  0.2797E-01  0.2403E+01
     14.566  0.3432E+00  0.2444E+01
     14.685  0.4154E+00  0.2494E+01
     14.805  0.5083E-01  0.2500E+01
     14.924  0.5155E-03  0.2500E+01
     15.043  0.3646E-06  0.2500E+01
     15.163  0.1651E-10  0.2500E+01
     15.282  0.0000E+00  0.2500E+01
     15.401  0.0000E+00  0.2500E+01
     15.521  0.0000E+00  0.2500E+01
     15.640  0.0000E+00  0.2500E+01
     15.759  0.0000E+00  0.2500E+01
     15.879  0.0000E+00  0.2500E+01
     15.998  0.0000E+00  0.2500E+01
     16.117  0.4652E-16  0.2500E+01
     16.237  0.1688E-10  0.2500E+01
     16.356  0.3707E-06  0.2500E+01
     16.475  0.5215E-03  0.2500E+01
     16.594  0.5116E-01  0.2506E+01
     16.714  0.4162E+00  0.2556E+01
     16.833  0.3423E+00  0.2597E+01
     16.952  0.2776E-01  0.2600E+01
     17.072  0.1799E-03  0.2600E+01
     17.191  0.7974E-07  0.2600E+01
     17.310  0.2242E-11  0.2600E+01
     17.430  0.0000E+00  0.2600E+01
     17.549  0.0000E+00  0.2600E+01
     17.668  0.0000E+00  0.2600E+01
     17.788  0.0000E+00  0.2600E+01
     17.907  0.0000E+00  0.2600E+01
     18.026  0.0000E+00  0.2600E+01
     18.146  0.0000E+00  0.2600E+01
     18.265  0.0000E+00  0.2600E+01
     18.384  0.0000E+00  0.2600E+01
     18.504  0.2553E-11  0.2600E+01
     18.623  0.8808E-07  0.2600E+01
     18.742  0.1929E-03  0.2600E+01
     18.861  0.2892E-01  0.2603E+01
     18.981  0.3473E+00  0.2645E+01
     19.100  0.4119E+00  0.2694E+01
     19.219  0.4933E-01  0.2700E+01
     19.339  0.4887E-03  0.2700E+01
     19.458  0.3373E-06  0.2700E+01
     19.577  0.1489E-10  0.2700E+01
     19.697  0.0000E+00  0.2700E+01
     19.816  0.0000E+00  0.2700E+01
     19.935  0.0000E+00  0.2700E+01
     20.055  0.0000E+00  0.2700E+01
     20.174  0.0000E+00  0.2700E+01
     20.293  0.0000E+00  0.2700E+01
     20.413  0.0000E+00  0.2700E+01
     20.532  0.0000E+00  0.2700E+01
     20.651  0.0000E+00  0.2700E+01
     20.770  0.0000E+00  0.2700E+01
     20.890  0.2726E-13  0.2700E+01
     21.009  0.2615E-08  0.2700E+01
     21.128  0.1568E-04  0.2700E+01
     21.248  0.6217E-02  0.2701E+01
     21.367  0.1842E+00  0.2723E+01
     21.486  0.5020E+00  0.2783E+01
     21.606  0.1420E+00  0.2800E+01
     21.725  0.3607E-02  0.2800E+01
     21.844  0.6716E-05  0.2800E+01
     21.964  0.8196E-09  0.2800E+01
     22.083  0.6234E-14  0.2800E+01
     22.202  0.0000E+00  0.2800E+01
     22.322  0.0000E+00  0.2800E+01
     22.441  0.0000E+00  0.2800E+01
     22.560  0.0000E+00  0.2800E+01
     22.680  0.0000E+00  0.2800E+01
     22.799  0.0000E+00  0.2800E+01
     22.918  0.0000E+00  0.2800E+01
     23.037  0.0000E+00  0.2800E+01
     23.157  0.0000E+00  0.2800E+01
     23.276  0.0000E+00  0.2800E+01
     23.395  0.6979E-15  0.2800E+01
     23.515  0.1438E-09  0.2800E+01
     23.634  0.1852E-05  0.2800E+01
     23.753  0.1546E-02  0.2800E+01
     23.873  0.9235E-01  0.2811E+01
     23.992  0.4772E+00  0.2868E+01
     24.111  0.2541E+00  0.2898E+01
     24.231  0.1288E-01  0.2900E+01
     24.350  0.5023E-04  0.2900E+01
     24.469  0.1314E-07  0.2900E+01
     24.589  0.2162E-12  0.2900E+01
     24.708  0.0000E+00  0.2900E+01
     24.827  0.0000E+00  0.2900E+01
     24.947  0.0000E+00  0.2900E+01
     25.066  0.0000E+00  0.2900E+01
     25.185  0.0000E+00  0.2900E+01
     25.304  0.0000E+00  0.2900E+01
     25.424  0.0000E+00  0.2900E+01
     25.543  0.0000E+00  0.2900E+01
     25.662  0.0000E+00  0.2900E+01
     25.782  0.0000E+00  0.2900E+01
     25.901  0.0000E+00  0.2900E+01
     26.020  0.4652E-16  0.2900E+01
     26.140  0.2211E-10  0.2900E+01
     26.259  0.4547E-06  0.2900E+01
     26.378  0.5995E-03  0.2900E+01
     26.498  0.5531E-01  0.2907E+01
     26.617  0.4252E+00  0.2957E+01
     26.736  0.3315E+00  0.2997E+01
     26.856  0.2538E-01  0.3000E+01
     26.975  0.1546E-03  0.3000E+01
     27.094  0.6419E-07  0.3000E+01
     27.214  0.1689E-11  0.3000E+01
     27.333  0.0000E+00  0.3000E+01
     27.452  0.0000E+00  0.3000E+01
     27.571  0.0000E+00  0.3000E+01
     27.691  0.0000E+00  0.3000E+01
     27.810  0.0000E+00  0.3000E+01
     27.929  0.0000E+00  0.3000E+01
     28.049  0.0000E+00  0.3000E+01
     28.168  0.0000E+00  0.3000E+01
     28.287  0.0000E+00  0.3000E+01
     28.407  0.0000E+00  0.3000E+01
     28.526  0.0000E+00  0.3000E+01
     28.645  0.0000E+00  0.3000E+01
     28.765  0.9305E-16  0.3000E+01
     28.884  0.2806E-10  0.3000E+01
     29.003  0.5443E-06  0.3000E+01
     29.123  0.6777E-03  0.3000E+01
     29.242  0.5919E-01  0.3007E+01
     29.361  0.4329E+00  0.3059E+01
     29.481  0.3218E+00  0.3097E+01
     29.600  0.2341E-01  0.3100E+01
     29.719  0.1349E-03  0.3100E+01
     29.838  0.5287E-07  0.3100E+01
     29.958  0.1312E-11  0.3100E+01
     30.077  0.0000E+00  0.3100E+01
     30.196  0.0000E+00  0.3100E+01
     30.316  0.0000E+00  0.3100E+01
     30.435  0.0000E+00  0.3100E+01
     30.554  0.0000E+00  0.3100E+01
     30.674  0.0000E+00  0.3100E+01
     30.793  0.0000E+00  0.3100E+01
     30.912  0.0000E+00  0.3100E+01
     31.032  0.0000E+00  0.3100E+01
     31.151  0.0000E+00  0.3100E+01
     31.270  0.0000E+00  0.3100E+01
     31.390  0.0000E+00  0.3100E+01
     31.509  0.0000E+00  0.3100E+01
     31.628  0.5862E-14  0.3100E+01
     31.748  0.7840E-09  0.3100E+01
     31.867  0.6501E-05  0.3100E+01
     31.986  0.3531E-02  0.3100E+01
     32.105  0.1406E+00  0.3117E+01
     32.225  0.5018E+00  0.3177E+01
     32.344  0.1859E+00  0.3199E+01
     32.463  0.6342E-02  0.3200E+01
     32.583  0.1618E-04  0.3200E+01
     32.702  0.2730E-08  0.3200E+01
     32.821  0.2885E-13  0.3200E+01
     32.941  0.0000E+00  0.3200E+01
     33.060  0.0000E+00  0.3200E+01
     33.179  0.0000E+00  0.3200E+01
     33.299  0.0000E+00  0.3200E+01
     33.418  0.0000E+00  0.3200E+01
     33.537  0.0000E+00  0.3200E+01
     33.657  0.0000E+00  0.3200E+01
     33.776  0.0000E+00  0.3200E+01
     33.895  0.0000E+00  0.3200E+01
     34.015  0.0000E+00  0.3200E+01
     34.134  0.0000E+00  0.3200E+01
     34.253  0.0000E+00  0.3200E+01
     34.372  0.0000E+00  0.3200E+01
     34.492  0.1396E-15  0.3200E+01
     34.611  0.3791E-10  0.3200E+01
     34.730  0.6826E-06  0.3200E+01
     34.850  0.7904E-03  0.3200E+01
     34.969  0.6442E-01  0.3208E+01
     35.088  0.4422E+00  0.3261E+01
     35.208  0.3095E+00  0.3297E+01
     35.327  0.2109E-01  0.3300E+01
     35.446  0.1133E-03  0.3300E+01
     35.566  0.4126E-07  0.3300E+01
     35.685  0.9504E-12  0.3300E+01
     35.804  0.0000E+00  0.3300E+01
     35.924  0.0000E+00  0.3300E+01
     36.043  0.0000E+00  0.3300E+01
     36.162  0.0000E+00  0.3300E+01
     36.282  0.0000E+00  0.3300E+01
     36.401  0.0000E+00  0.3300E+01
     36.520  0.0000E+00  0.3300E+01
     36.639  0.0000E+00  0.3300E+01
     36.759  0.0000E+00  0.3300E+01
     36.878  0.0000E+00  0.3300E+01
     36.997  0.0000E+00  0.3300E+01
     37.117  0.0000E+00  0.3300E+01
     37.236  0.0000E+00  0.3300E+01
     37.355  0.0000E+00  0.3300E+01
     37.475  0.1154E-13  0.3300E+01
     37.594  0.1333E-08  0.3300E+01
     37.713  0.9592E-05  0.3300E+01
     37.833  0.4540E-02  0.3301E+01
     37.952  0.1588E+00  0.3319E+01
     38.071  0.5038E+00  0.3380E+01
     38.191  0.1660E+00  0.3399E+01
     38.310  0.4979E-02  0.3400E+01
     38.429  0.1107E-04  0.3400E+01
     38.549  0.1622E-08  0.3400E+01
     38.668  0.1479E-13  0.3400E+01
     38.787  0.0000E+00  0.3400E+01
     38.906  0.0000E+00  0.3400E+01
     39.026  0.0000E+00  0.3400E+01
     39.145  0.0000E+00  0.3400E+01
     39.264  0.0000E+00  0.3400E+01
     39.384  0.0000E+00  0.3400E+01
     39.503  0.0000E+00  0.3400E+01
     39.622  0.0000E+00  0.3400E+01
     39.742  0.0000E+00  0.3400E+01
     39.861  0.0000E+00  0.3400E+01
     39.980  0.0000E+00  0.3400E+01
     40.100  0.0000E+00  0.3400E+01
     40.219  0.0000E+00  0.3400E+01
     40.338  0.0000E+00  0.3400E+01
     40.458  0.2233E-14  0.3400E+01
     40.577  0.3648E-09  0.3400E+01
     40.696  0.3698E-05  0.3400E+01
     40.816  0.2443E-02  0.3400E+01
     40.935  0.1169E+00  0.3414E+01
     41.054  0.4939E+00  0.3473E+01
     41.173  0.2160E+00  0.3499E+01
     41.293  0.8834E-02  0.3500E+01
     41.412  0.2736E-04  0.3500E+01
     41.531  0.5640E-08  0.3500E+01
     41.651  0.7286E-13  0.3500E+01
     41.770  0.0000E+00  0.3500E+01
     41.889  0.0000E+00  0.3500E+01
     42.009  0.0000E+00  0.3500E+01
     42.128  0.0000E+00  0.3500E+01
     42.247  0.0000E+00  0.3500E+01
     42.367  0.0000E+00  0.3500E+01
     42.486  0.0000E+00  0.3500E+01
     42.605  0.0000E+00  0.3500E+01
     42.725  0.0000E+00  0.3500E+01
     42.844  0.0000E+00  0.3500E+01
     42.963  0.0000E+00  0.3500E+01
     43.083  0.0000E+00  0.3500E+01
     43.202  0.0000E+00  0.3500E+01
     43.321  0.2512E-14  0.3500E+01
     43.440  0.4020E-09  0.3500E+01
     43.560  0.3973E-05  0.3500E+01
     43.679  0.2561E-02  0.3500E+01
     43.798  0.1198E+00  0.3515E+01
     43.918  0.4952E+00  0.3574E+01
     44.037  0.2121E+00  0.3599E+01
     44.156  0.8479E-02  0.3600E+01
     44.276  0.2563E-04  0.3600E+01
     44.395  0.5152E-08  0.3600E+01
     44.514  0.6486E-13  0.3600E+01
     44.634  0.0000E+00  0.3600E+01
     44.753  0.0000E+00  0.3600E+01
     44.872  0.0000E+00  0.3600E+01
     44.992  0.0000E+00  0.3600E+01
     45.111  0.0000E+00  0.3600E+01
     45.230  0.0000E+00  0.3600E+01
     45.350  0.0000E+00  0.3600E+01
     45.469  0.0000E+00  0.3600E+01
     45.588  0.0000E+00  0.3600E+01
     45.707  0.0000E+00  0.3600E+01
     45.827  0.0000E+00  0.3600E+01
     45.946  0.1452E-13  0.3600E+01
     46.065  0.1597E-08  0.3600E+01
     46.185  0.1095E-04  0.3600E+01
     46.304  0.4942E-02  0.3601E+01
     46.423  0.1654E+00  0.3620E+01
     46.543  0.5038E+00  0.3680E+01
     46.662  0.1594E+00  0.3699E+01
     46.781  0.4574E-02  0.3700E+01
     46.901  0.9703E-05  0.3700E+01
     47.020  0.1354E-08  0.3700E+01
     47.139  0.1172E-13  0.3700E+01
     47.259  0.0000E+00  0.3700E+01
     47.378  0.0000E+00  0.3700E+01
     47.497  0.0000E+00  0.3700E+01
     47.617  0.0000E+00  0.3700E+01
     47.736  0.0000E+00  0.3700E+01
     47.855  0.0000E+00  0.3700E+01
     47.974  0.5583E-15  0.3700E+01
     48.094  0.1235E-09  0.3700E+01
     48.213  0.1654E-05  0.3700E+01
     48.332  0.1433E-02  0.3700E+01
     48.452  0.8874E-01  0.3711E+01
     48.571  0.4738E+00  0.3767E+01
     48.690  0.2604E+00  0.3798E+01
     48.810  0.1366E-01  0.3800E+01
     48.929  0.5530E-04  0.3800E+01
     49.048  0.1503E-07  0.3800E+01
     49.168  0.2571E-12  0.3800E+01
     49.287  0.7205E-11  0.3800E+01
     49.406  0.1944E-06  0.3800E+01
     49.526  0.3344E-03  0.3800E+01
     49.645  0.3978E-01  0.3805E+01
     49.764  0.3861E+00  0.3851E+01
     49.883  0.3753E+00  0.3896E+01
     50.003  0.5511E-01  0.3902E+01
     50.122  0.2960E+00  0.3938E+01
     50.241  0.4520E+00  0.3991E+01
     50.361  0.7065E-01  0.4000E+01
     50.480  0.9363E-03  0.4000E+01
     50.599  0.8769E-06  0.4000E+01
     50.719  0.5290E-10  0.4000E+01
     50.838  0.1861E-15  0.4000E+01
     50.957  0.0000E+00  0.4000E+01
     51.077  0.0000E+00  0.4000E+01
     51.196  0.0000E+00  0.4000E+01
     51.315  0.0000E+00  0.4000E+01
     51.435  0.0000E+00  0.4000E+01
     51.554  0.0000E+00  0.4000E+01
     51.673  0.0000E+00  0.4000E+01
     51.793  0.0000E+00  0.4000E+01
     51.912  0.0000E+00  0.4000E+01
     52.031  0.0000E+00  0.4000E+01
     52.150  0.0000E+00  0.4000E+01
     52.270  0.0000E+00  0.4000E+01
     52.389  0.0000E+00  0.4000E+01
     52.508  0.0000E+00  0.4000E+01
     52.628  0.0000E+00  0.4000E+01
     52.747  0.0000E+00  0.4000E+01
     52.866  0.0000E+00  0.4000E+01
     52.986  0.0000E+00  0.4000E+01
     53.105  0.0000E+00  0.4000E+01
     53.224  0.0000E+00  0.4000E+01
     53.344  0.0000E+00  0.4000E+01
     53.463  0.0000E+00  0.4000E+01
     53.582  0.0000E+00  0.4000E+01
     53.702  0.0000E+00  0.4000E+01
     53.821  0.0000E+00  0.4000E+01
     53.940  0.0000E+00  0.4000E+01
     54.060  0.0000E+00  0.4000E+01
     54.179  0.0000E+00  0.4000E+01
     54.298  0.0000E+00  0.4000E+01
     54.417  0.0000E+00  0.4000E+01
     54.537  0.0000E+00  0.4000E+01
     54.656  0.0000E+00  0.4000E+01
     54.775  0.0000E+00  0.4000E+01
     54.895  0.0000E+00  0.4000E+01
     55.014  0.0000E+00  0.4000E+01
     55.133  0.0000E+00  0.4000E+01
     55.253  0.0000E+00  0.4000E+01
     55.372  0.0000E+00  0.4000E+01
     55.491  0.0000E+00  0.4000E+01
     55.611  0.0000E+00  0.4000E+01
     55.730  0.0000E+00  0.4000E+01
     55.849  0.4652E-16  0.4000E+01
     55.969  0.2101E-10  0.4000E+01
     56.088  0.4377E-06  0.4000E+01
     56.207  0.5861E-03  0.4000E+01
     56.327  0.5619E-01  0.4007E+01
     56.446  0.5200E+00  0.4069E+01
     56.565  0.8144E+00  0.4166E+01
     56.684  0.2930E+00  0.4201E+01
     56.804  0.4555E+00  0.4255E+01
     56.923  0.9729E+00  0.4371E+01
     57.042  0.2365E+00  0.4400E+01
     57.162  0.1139E+00  0.4413E+01
     57.281  0.4893E+00  0.4472E+01
     57.400  0.2281E+00  0.4499E+01
     57.520  0.1003E-01  0.4500E+01
     57.639  0.1167E-01  0.4501E+01
     57.758  0.3570E+00  0.4544E+01
     57.878  0.1005E+01  0.4664E+01
     57.997  0.2943E+00  0.4699E+01
     58.116  0.7765E-02  0.4700E+01
     58.236  0.5200E-04  0.4700E+01
     58.355  0.1065E-01  0.4701E+01
     58.474  0.2344E+00  0.4729E+01
     58.594  0.4867E+00  0.4787E+01
     58.713  0.1044E+00  0.4800E+01
     58.832  0.1958E-02  0.4800E+01
     58.951  0.2645E-05  0.4800E+01
     59.071  0.2327E-09  0.4800E+01
     59.190  0.2869E-07  0.4800E+01
     59.309  0.8763E-04  0.4800E+01
     59.429  0.1819E-01  0.4802E+01
     59.548  0.3130E+00  0.4840E+01
     59.667  0.7663E+00  0.4931E+01
     59.787  0.5133E+00  0.4992E+01
     59.906  0.6462E-01  0.5000E+01
     60.025  0.2047E-01  0.5002E+01
     60.145  0.3015E+00  0.5038E+01
     60.264  0.4479E+00  0.5092E+01
     60.383  0.6798E-01  0.5100E+01
     60.503  0.8721E-03  0.5100E+01
     60.622  0.7894E-06  0.5100E+01
     60.741  0.1074E-06  0.5100E+01
     60.861  0.2215E-03  0.5100E+01
     60.980  0.3135E-01  0.5104E+01
     61.099  0.3571E+00  0.5146E+01
     61.218  0.4032E+00  0.5194E+01
     61.338  0.4596E-01  0.5200E+01
     61.457  0.3021E-01  0.5204E+01
     61.576  0.6059E+00  0.5276E+01
     61.696  0.1398E+01  0.5443E+01
     61.815  0.4603E+00  0.5498E+01
     61.934  0.6209E-01  0.5505E+01
     62.054  0.5972E+00  0.5576E+01
     62.173  0.1159E+01  0.5715E+01
     62.292  0.6690E+00  0.5794E+01
     62.412  0.4787E+00  0.5851E+01
     62.531  0.3718E+00  0.5896E+01
     62.650  0.3569E-01  0.5900E+01
     62.770  0.6124E-01  0.5907E+01
     62.889  0.4405E+00  0.5960E+01
     63.008  0.4730E+00  0.6016E+01
     63.128  0.5263E+00  0.6079E+01
     63.247  0.1896E+00  0.6102E+01
     63.366  0.4623E+00  0.6157E+01
     63.485  0.1151E+01  0.6294E+01
     63.605  0.1203E+01  0.6438E+01
     63.724  0.1034E+01  0.6561E+01
     63.843  0.3442E+00  0.6602E+01
     63.963  0.5039E+00  0.6662E+01
     64.082  0.1281E+01  0.6815E+01
     64.201  0.6670E+00  0.6895E+01
     64.321  0.4359E-01  0.6900E+01
     64.440  0.2387E-03  0.6900E+01
     64.559  0.9342E-07  0.6900E+01
     64.679  0.1865E-04  0.6900E+01
     64.798  0.7936E-02  0.6901E+01
     64.917  0.2754E+00  0.6934E+01
     65.037  0.9727E+00  0.7050E+01
     65.156  0.4024E+00  0.7098E+01
     65.275  0.1758E-01  0.7100E+01
     65.395  0.1586E-03  0.7100E+01
     65.514  0.1900E-01  0.7102E+01
     65.633  0.3247E+00  0.7141E+01
     65.752  0.7970E+00  0.7236E+01
     65.872  0.4840E+00  0.7294E+01
     65.991  0.5097E-01  0.7300E+01
     66.110  0.3360E-02  0.7300E+01
     66.230  0.1279E+00  0.7316E+01
     66.349  0.6045E+00  0.7388E+01
     66.468  0.1145E+01  0.7524E+01
     66.588  0.1239E+01  0.7672E+01
     66.707  0.2289E+00  0.7699E+01
     66.826  0.4537E-02  0.7700E+01
     66.946  0.2041E-04  0.7700E+01
     67.065  0.5682E-02  0.7701E+01
     67.184  0.1977E+00  0.7724E+01
     67.304  0.8229E+00  0.7822E+01
     67.423  0.5851E+00  0.7892E+01
     67.542  0.6431E-01  0.7900E+01
     67.662  0.2704E-01  0.7903E+01
     67.781  0.3359E+00  0.7943E+01
     67.900  0.4215E+00  0.7994E+01
     68.019  0.5358E-01  0.8000E+01
     68.139  0.5663E-03  0.8000E+01
     68.258  0.4183E-06  0.8000E+01
     68.377  0.1980E-10  0.8000E+01
     68.497  0.0000E+00  0.8000E+01
     68.616  0.0000E+00  0.8000E+01
     68.735  0.0000E+00  0.8000E+01
     68.855  0.0000E+00  0.8000E+01
     68.974  0.0000E+00  0.8000E+01
     69.093  0.7789E-11  0.8000E+01
     69.213  0.2062E-06  0.8000E+01
     69.332  0.3484E-03  0.8000E+01
     69.451  0.4072E-01  0.8005E+01
     69.571  0.3889E+00  0.8051E+01
     69.690  0.3723E+00  0.8096E+01
     69.809  0.3551E-01  0.8100E+01
     69.929  0.2746E-03  0.8100E+01
     70.048  0.1462E-06  0.8100E+01
     70.167  0.4957E-11  0.8100E+01
     70.286  0.0000E+00  0.8100E+01
     70.406  0.0000E+00  0.8100E+01
     70.525  0.0000E+00  0.8100E+01
     70.644  0.0000E+00  0.8100E+01
     70.764  0.8333E-13  0.8100E+01
     70.883  0.6262E-08  0.8100E+01
     71.002  0.2951E-04  0.8100E+01
     71.122  0.9260E-02  0.8101E+01
     71.241  0.2205E+00  0.8127E+01
     71.360  0.4922E+00  0.8186E+01
     71.480  0.1137E+00  0.8200E+01
     71.599  0.2312E-02  0.8200E+01
     71.718  0.3402E-05  0.8200E+01
     71.838  0.3259E-09  0.8200E+01
     71.957  0.1954E-14  0.8200E+01
     72.076  0.6225E-13  0.8200E+01
     72.196  0.4988E-08  0.8200E+01
     72.315  0.2504E-04  0.8200E+01
     72.434  0.8356E-02  0.8201E+01
     72.553  0.2107E+00  0.8226E+01
     72.673  0.4956E+00  0.8285E+01
     72.792  0.1208E+00  0.8300E+01
     72.911  0.2628E-02  0.8300E+01
     73.031  0.8158E-02  0.8301E+01
     73.150  0.2084E+00  0.8326E+01
     73.269  0.4963E+00  0.8385E+01
     73.389  0.1246E+00  0.8400E+01
     73.508  0.1108E+00  0.8413E+01
     73.627  0.4891E+00  0.8472E+01
     73.747  0.2287E+00  0.8499E+01
     73.866  0.1007E-01  0.8500E+01
     73.985  0.3373E-04  0.8500E+01