    1    1    1    1
  0.2957216E+01  0.1435361E-09  0.1435361E-09  0.1435361E-09  0.5000000E-15
  1.000000000000000E-004
  CAR 
 jump2                                   
    1   20    8
 
  0.0000000E+00  0.0000000E+00  0.0000000E+00  0.5000000E-01
   1      -13.603238
   2       50.144605
   3       61.606642
   4       61.606642
   5       63.598560
   6      123.248610
   7      134.003627
   8      136.639233
 
  0.0000000E+00  0.2631579E-01  0.0000000E+00  0.5000000E-01
   1      -13.554418
   2       49.762666
   3       59.685759
   4       61.671441
   5       63.557735
   6      122.486782
   7      132.872786
   8      135.363842
 
  0.0000000E+00  0.5263158E-01  0.0000000E+00  0.5000000E-01
   1      -13.408006
   2       48.539352
   3       57.814631
   4       62.095812
   5      120.280013
   6      132.482390
   7      138.359187
   8      203.334183
 
  0.0000000E+00  0.7894737E-01  0.0000000E+00  0.5000000E-01
   1      -13.164157
   2       46.482042
   3       56.833589
   4       62.202992
   5       73.195869
   6      117.591032
   7      129.467810
   8      198.810482
 
  0.0000000E+00  0.1052632E+00  0.0000000E+00  0.5000000E-01
   1      -12.823140
   2       43.872927
   3       56.433199
   4       62.408799
   5       63.402819
   6       77.386227
   7      114.594189
   8      141.843513
 
  0.0000000E+00  0.1315789E+00  0.0000000E+00  0.5000000E-01
   1      -12.382840
   2       41.010445
   3       56.529936
   4       62.872077
   5       63.695212
   6      111.687990
   7      117.334396
   8      154.670762
 
  0.0000000E+00  0.1578947E+00  0.0000000E+00  0.5000000E-01
   1      -11.855405
   2       38.012742
   3       56.859279
   4       63.410943
   5       63.968251
   6       85.632318
   7      124.850222
   8      150.839575
 
  0.0000000E+00  0.1842105E+00  0.0000000E+00  0.5000000E-01
   1      -11.226753
   2       35.069457
   3       57.240706
   4       64.059134
   5       64.968736
   6      106.635251
   7      109.431182
   8      131.471224
 
  0.0000000E+00  0.2105263E+00  0.0000000E+00  0.5000000E-01
   1      -10.503970
   2       32.172404
   3       57.811282
   4       66.439486
   5       95.043371
   6      102.309718
   7      134.644851
   8      136.476349
 
  0.0000000E+00  0.2368421E+00  0.0000000E+00  0.5000000E-01
   1       -9.688684
   2       29.345506
   3       58.512860
   4       65.655507
   5       66.519911
   6      102.019267
   7      133.981489
   8      174.573798
 
  0.0000000E+00  0.2631579E+00  0.0000000E+00  0.5000000E-01
   1       -8.783227
   2       26.603767
   3       59.571610
   4       67.319842
   5       67.240037
   6       98.320019
   7      131.497716
   8      174.690427
 
  0.0000000E+00  0.2894737E+00  0.0000000E+00  0.5000000E-01
   1       -7.791015
   2       23.958672
   3       60.165613
   4       67.792866
   5       94.646772
   6       99.353842
   7      139.680682
   8      173.279776
 
  0.0000000E+00  0.3157895E+00  0.0000000E+00  0.5000000E-01
   1       -6.717231
   2       21.419971
   3       61.105596
   4       69.568251
   5       94.368621
   6       96.786536
   7      134.163951
   8      167.999295
 
  0.0000000E+00  0.3421053E+00  0.0000000E+00  0.5000000E-01
   1       -5.577633
   2       18.989810
   3       62.059084
   4       71.283420
   5       92.619266
   6      119.765473
   7      139.661724
   8      163.412328
 
  0.0000000E+00  0.3684211E+00  0.0000000E+00  0.5000000E-01
   1       -4.371355
   2       16.703411
   3       63.070131
   4       72.598640
   5       97.420861
   6      135.525750
   7      143.222306
   8      150.304189
 
  0.0000000E+00  0.3947368E+00  0.0000000E+00  0.5000000E-01
   1       -3.129352
   2       14.576209
   3       64.068025
   4       73.587124
   5       86.897916
   6       89.142023
   7      145.224805
   8      162.331095
 
  0.0000000E+00  0.4210526E+00  0.0000000E+00  0.5000000E-01
   1       -1.896408
   2       12.654028
   3       65.005970
   4       75.106927
   5       86.709563
   6      143.715998
   7      144.021598
   8      157.173672
 
  0.0000000E+00  0.4473684E+00  0.0000000E+00  0.5000000E-01
   1       -0.771010
   2       11.013882
   3       65.762020
   4       76.121056
   5       82.819305
   6      140.716378
   7      149.859751
   8      156.973104
 
  0.0000000E+00  0.4736842E+00  0.0000000E+00  0.5000000E-01
   1        0.093098
   2        9.853704
   3       66.301695
   4       77.219295
   5       83.403843
   6       83.935781
   7      150.758370
   8      155.567365
 
  0.0000000E+00  0.5000000E+00  0.0000000E+00  0.5000000E-01
   1        0.431607
   2        9.416477
   3       66.493549
   4       82.402736
   5       82.251077
   6      148.545416
   7      152.256212
   8      153.798808
