PROCAR lm decomposed
# of k-points:   20         # of bands:   8         # of ions:   1

 k-point    1 :    0.00000000 0.00000000 0.00000000     weight = 0.05000000

band   1 # energy  -13.60323832 # occ.  2.00000000
 
ion      s     py     pz     px    dxy    dyz    dz2    dxz    dx2    tot
  1  0.412  0.000  0.000  0.000  0.000  0.000  0.000  0.000  0.000  0.412
 
band   2 # energy   50.14460544 # occ.  0.00000000
 
ion      s     py     pz     px    dxy    dyz    dz2    dxz    dx2    tot
  1  0.493  0.000  0.000  0.000  0.000  0.000  0.000  0.000  0.000  0.493
 
band   3 # energy   61.60664222 # occ.  0.00000000
 
ion      s     py     pz     px    dxy    dyz    dz2    dxz    dx2    tot
  1  0.000  0.161  0.615  0.069  0.000  0.000  0.000  0.000  0.000  0.845
 
band   4 # energy   61.60664233 # occ.  0.00000000
 
ion      s     py     pz     px    dxy    dyz    dz2    dxz    dx2    tot
  1  0.000  0.258  0.002  0.585  0.000  0.000  0.000  0.000  0.000  0.845
 
band   5 # energy   63.59856019 # occ.  0.00000000
 
ion      s     py     pz     px    dxy    dyz    dz2    dxz    dx2    tot
  1  0.000  0.000  0.000  0.000  0.000  0.000  0.000  0.000  0.000  0.000
 
band   6 # energy  123.24860967 # occ.  0.00000000
 
ion      s     py     pz     px    dxy    dyz    dz2    dxz    dx2    tot
  1  0.295  0.000  0.000  0.000  0.000  0.000  0.000  0.000  0.000  0.295
 
band   7 # energy  134.00362683 # occ.  0.00000000
 
ion      s     py     pz     px    dxy    dyz    dz2    dxz    dx2    tot
  1  0.000  0.659  0.083  1.420  0.000  0.000  0.000  0.000  0.000  2.162
 
band   8 # energy  136.63923334 # occ.  0.00000000
 
ion      s     py     pz     px    dxy    dyz    dz2    dxz    dx2    tot
  1  0.000  0.041  0.014  0.012  0.000  0.000  0.000  0.000  0.000  0.067
 

 k-point    2 :    0.00000000 0.02631579 0.00000000     weight = 0.05000000

band   1 # energy  -13.55441768 # occ.  2.00000000
 
ion      s     py     pz     px    dxy    dyz    dz2    dxz    dx2    tot
  1  0.412  0.000  0.000  0.000  0.000  0.000  0.000  0.000  0.000  0.412
 
band   2 # energy   49.76266619 # occ.  0.00000000
 
ion      s     py     pz     px    dxy    dyz    dz2    dxz    dx2    tot
  1  0.476  0.021  0.000  0.000  0.000  0.000  0.000  0.000  0.000  0.497
 
band   3 # energy   59.68575879 # occ.  0.00000000
 
ion      s     py     pz     px    dxy    dyz    dz2    dxz    dx2    tot
  1  0.014  0.510  0.001  0.000  0.000  0.000  0.000  0.000  0.000  0.526
 
band   4 # energy   61.67144115 # occ.  0.00000000
 
ion      s     py     pz     px    dxy    dyz    dz2    dxz    dx2    tot
  1  0.000  0.000  0.028  0.811  0.000  0.000  0.000  0.000  0.000  0.840
 
band   5 # energy   63.55773527 # occ.  0.00000000
 
ion      s     py     pz     px    dxy    dyz    dz2    dxz    dx2    tot
  1  0.000  0.011  0.071  0.002  0.000  0.000  0.000  0.000  0.000  0.084
 
band   6 # energy  122.48678215 # occ.  0.00000000
 
ion      s     py     pz     px    dxy    dyz    dz2    dxz    dx2    tot
  1  0.281  0.085  0.001  0.001  0.000  0.000  0.000  0.000  0.000  0.368
 
band   7 # energy  132.87278625 # occ.  0.00000000
 
ion      s     py     pz     px    dxy    dyz    dz2    dxz    dx2    tot
  1  0.000  0.070  0.092  0.305  0.000  0.000  0.000  0.000  0.000  0.467
 
band   8 # energy  135.36384153 # occ.  0.00000000
 
ion      s     py     pz     px    dxy    dyz    dz2    dxz    dx2    tot
  1  0.002  0.327  0.071  0.047  0.000  0.000  0.000  0.000  0.000  0.446
 

 k-point    3 :    0.00000000 0.05263158 0.00000000     weight = 0.05000000

band   1 # energy  -13.40800578 # occ.  2.00000000
 
ion      s     py     pz     px    dxy    dyz    dz2    dxz    dx2    tot
  1  0.411  0.001  0.000  0.000  0.000  0.000  0.000  0.000  0.000  0.412
 
band   2 # energy   48.53935189 # occ.  0.00000000
 
ion      s     py     pz     px    dxy    dyz    dz2    dxz    dx2    tot
  1  0.420  0.080  0.000  0.000  0.000  0.000  0.000  0.000  0.000  0.499
 
band   3 # energy   57.81463057 # occ.  0.00000000
 
ion      s     py     pz     px    dxy    dyz    dz2    dxz    dx2    tot
  1  0.064  0.347  0.001  0.000  0.000  0.000  0.000  0.000  0.000  0.412
 
band   4 # energy   62.09581237 # occ.  0.00000000
 
ion      s     py     pz     px    dxy    dyz    dz2    dxz    dx2    tot
  1  0.000  0.000  0.103  0.619  0.000  0.000  0.000  0.000  0.000  0.722
 
band   5 # energy  120.28001292 # occ.  0.00000000
 
ion      s     py     pz     px    dxy    dyz    dz2    dxz    dx2    tot
  1  0.238  0.392  0.002  0.002  0.000  0.000  0.000  0.000  0.000  0.634
 
band   6 # energy  132.48239018 # occ.  0.00000000
 
ion      s     py     pz     px    dxy    dyz    dz2    dxz    dx2    tot
  1  0.003  0.016  0.010  0.181  0.000  0.000  0.000  0.000  0.000  0.210
 
band   7 # energy  138.35918722 # occ.  0.00000000
 
ion      s     py     pz     px    dxy    dyz    dz2    dxz    dx2    tot
  1  0.003  0.094  0.204  1.539  0.000  0.000  0.000  0.000  0.000  1.840
 
band   8 # energy  203.33418284 # occ.  0.00000000
 
ion      s     py     pz     px    dxy    dyz    dz2    dxz    dx2    tot
  1  0.010  0.192  0.707  0.177  0.000  0.000  0.000  0.000  0.000  1.087
 

 k-point    4 :    0.00000000 0.07894737 0.00000000     weight = 0.05000000

band   1 # energy  -13.16415660 # occ.  2.00000000
 
ion      s     py     pz     px    dxy    dyz    dz2    dxz    dx2    tot
  1  0.411  0.002  0.000  0.000  0.000  0.000  0.000  0.000  0.000  0.413
 
band   2 # energy   46.48204212 # occ.  0.00000000
 
ion      s     py     pz     px    dxy    dyz    dz2    dxz    dx2    tot
  1  0.343  0.145  0.000  0.000  0.000  0.000  0.000  0.000  0.000  0.488
 
band   3 # energy   56.83358900 # occ.  0.00000000
 
ion      s     py     pz     px    dxy    dyz    dz2    dxz    dx2    tot
  1  0.134  0.244  0.006  0.001  0.000  0.000  0.000  0.000  0.000  0.385
 
band   4 # energy   62.20299231 # occ.  0.00000000
 
ion      s     py     pz     px    dxy    dyz    dz2    dxz    dx2    tot
  1  0.000  0.000  0.271  0.513  0.000  0.000  0.000  0.000  0.000  0.784
 
band   5 # energy   73.19586886 # occ.  0.00000000
 
ion      s     py     pz     px    dxy    dyz    dz2    dxz    dx2    tot
  1  0.018  0.459  0.001  0.001  0.000  0.000  0.000  0.000  0.000  0.479
 
band   6 # energy  117.59103222 # occ.  0.00000000
 
ion      s     py     pz     px    dxy    dyz    dz2    dxz    dx2    tot
  1  0.192  0.627  0.012  0.016  0.000  0.000  0.000  0.000  0.000  0.847
 
band   7 # energy  129.46780993 # occ.  0.00000000
 
ion      s     py     pz     px    dxy    dyz    dz2    dxz    dx2    tot
  1  0.021  0.116  0.345  0.642  0.000  0.000  0.000  0.000  0.000  1.124
 
band   8 # energy  198.81048247 # occ.  0.00000000
 
ion      s     py     pz     px    dxy    dyz    dz2    dxz    dx2    tot
  1  0.023  0.006  0.474  0.427  0.000  0.000  0.000  0.000  0.000  0.930
 

 k-point    5 :    0.00000000 0.10526316 0.00000000     weight = 0.05000000

band   1 # energy  -12.82314043 # occ.  2.00000000
 
ion      s     py     pz     px    dxy    dyz    dz2    dxz    dx2    tot
  1  0.411  0.003  0.000  0.000  0.000  0.000  0.000  0.000  0.000  0.413
 
band   2 # energy   43.87292678 # occ.  0.00000000
 
ion      s     py     pz     px    dxy    dyz    dz2    dxz    dx2    tot
  1  0.281  0.186  0.000  0.000  0.000  0.000  0.000  0.000  0.000  0.467
 
band   3 # energy   56.43319910 # occ.  0.00000000
 
ion      s     py     pz     px    dxy    dyz    dz2    dxz    dx2    tot
  1  0.194  0.190  0.001  0.000  0.000  0.000  0.000  0.000  0.000  0.384
 
band   4 # energy   62.40879950 # occ.  0.00000000
 
ion      s     py     pz     px    dxy    dyz    dz2    dxz    dx2    tot
  1  0.000  0.000  0.191  0.661  0.000  0.000  0.000  0.000  0.000  0.852
 
band   5 # energy   63.40281938 # occ.  0.00000000
 
ion      s     py     pz     px    dxy    dyz    dz2    dxz    dx2    tot
  1  0.000  0.000  0.330  0.095  0.000  0.000  0.000  0.000  0.000  0.425
 
band   6 # energy   77.38622689 # occ.  0.00000000
 
ion      s     py     pz     px    dxy    dyz    dz2    dxz    dx2    tot
  1  0.023  0.476  0.000  0.000  0.000  0.000  0.000  0.000  0.000  0.500
 
band   7 # energy  114.59418928 # occ.  0.00000000
 
ion      s     py     pz     px    dxy    dyz    dz2    dxz    dx2    tot
  1  0.161  0.775  0.002  0.012  0.000  0.000  0.000  0.000  0.000  0.949
 
band   8 # energy  141.84351264 # occ.  0.00000000
 
ion      s     py     pz     px    dxy    dyz    dz2    dxz    dx2    tot
  1  0.008  0.076  0.322  0.029  0.000  0.000  0.000  0.000  0.000  0.435
 

 k-point    6 :    0.00000000 0.13157895 0.00000000     weight = 0.05000000

band   1 # energy  -12.38284038 # occ.  2.00000000
 
ion      s     py     pz     px    dxy    dyz    dz2    dxz    dx2    tot
  1  0.410  0.004  0.000  0.000  0.000  0.000  0.000  0.000  0.000  0.414
 
band   2 # energy   41.01044491 # occ.  0.00000000
 
ion      s     py     pz     px    dxy    dyz    dz2    dxz    dx2    tot
  1  0.239  0.206  0.000  0.000  0.000  0.000  0.000  0.000  0.000  0.445
 
band   3 # energy   56.52993629 # occ.  0.00000000
 
ion      s     py     pz     px    dxy    dyz    dz2    dxz    dx2    tot
  1  0.231  0.145  0.000  0.006  0.000  0.000  0.000  0.000  0.000  0.381
 
band   4 # energy   62.87207702 # occ.  0.00000000
 
ion      s     py     pz     px    dxy    dyz    dz2    dxz    dx2    tot
  1  0.000  0.000  0.832  0.018  0.000  0.000  0.000  0.000  0.000  0.850
 
band   5 # energy   63.69521174 # occ.  0.00000000
 
ion      s     py     pz     px    dxy    dyz    dz2    dxz    dx2    tot
  1  0.000  0.000  0.017  0.457  0.000  0.000  0.000  0.000  0.000  0.476
 
band   6 # energy  111.68799026 # occ.  0.00000000
 
ion      s     py     pz     px    dxy    dyz    dz2    dxz    dx2    tot
  1  0.152  0.734  0.010  0.027  0.000  0.000  0.000  0.000  0.000  0.922
 
band   7 # energy  117.33439649 # occ.  0.00000000
 
ion      s     py     pz     px    dxy    dyz    dz2    dxz    dx2    tot
  1  0.007  0.012  0.047  0.412  0.000  0.000  0.000  0.000  0.000  0.477
 
band   8 # energy  154.67076196 # occ.  0.00000000
 
ion      s     py     pz     px    dxy    dyz    dz2    dxz    dx2    tot
  1  0.038  0.503  0.123  0.056  0.000  0.000  0.000  0.000  0.000  0.720
 

 k-point    7 :    0.00000000 0.15789474 0.00000000     weight = 0.05000000

band   1 # energy  -11.85540517 # occ.  2.00000000
 
ion      s     py     pz     px    dxy    dyz    dz2    dxz    dx2    tot
  1  0.409  0.005  0.000  0.000  0.000  0.000  0.000  0.000  0.000  0.414
 
band   2 # energy   38.01274195 # occ.  0.00000000
 
ion      s     py     pz     px    dxy    dyz    dz2    dxz    dx2    tot
  1  0.215  0.234  0.000  0.000  0.000  0.000  0.000  0.000  0.000  0.449
 
band   3 # energy   56.85927902 # occ.  0.00000000
 
ion      s     py     pz     px    dxy    dyz    dz2    dxz    dx2    tot
  1  0.254  0.123  0.002  0.004  0.000  0.000  0.000  0.000  0.000  0.383
 
band   4 # energy   63.41094265 # occ.  0.00000000
 
ion      s     py     pz     px    dxy    dyz    dz2    dxz    dx2    tot
  1  0.000  0.000  0.690  0.174  0.000  0.000  0.000  0.000  0.000  0.864
 
band   5 # energy   63.96825129 # occ.  0.00000000
 
ion      s     py     pz     px    dxy    dyz    dz2    dxz    dx2    tot
  1  0.000  0.000  0.126  0.491  0.000  0.000  0.000  0.000  0.000  0.617
 
band   6 # energy   85.63231813 # occ.  0.00000000
 
ion      s     py     pz     px    dxy    dyz    dz2    dxz    dx2    tot
  1  0.038  0.445  0.001  0.002  0.000  0.000  0.000  0.000  0.000  0.485
 
band   7 # energy  124.85022228 # occ.  0.00000000
 
ion      s     py     pz     px    dxy    dyz    dz2    dxz    dx2    tot
  1  0.023  0.078  0.177  0.232  0.000  0.000  0.000  0.000  0.000  0.510
 
band   8 # energy  150.83957497 # occ.  0.00000000
 
ion      s     py     pz     px    dxy    dyz    dz2    dxz    dx2    tot
  1  0.002  0.022  0.012  0.350  0.000  0.000  0.000  0.000  0.000  0.386
 

 k-point    8 :    0.00000000 0.18421053 0.00000000     weight = 0.05000000

band   1 # energy  -11.22675344 # occ.  2.00000000
 
ion      s     py     pz     px    dxy    dyz    dz2    dxz    dx2    tot
  1  0.409  0.006  0.000  0.000  0.000  0.000  0.000  0.000  0.000  0.416
 
band   2 # energy   35.06945693 # occ.  0.00000000
 
ion      s     py     pz     px    dxy    dyz    dz2    dxz    dx2    tot
  1  0.197  0.231  0.000  0.000  0.000  0.000  0.000  0.000  0.000  0.428
 
band   3 # energy   57.24070593 # occ.  0.00000000
 
ion      s     py     pz     px    dxy    dyz    dz2    dxz    dx2    tot
  1  0.273  0.111  0.000  0.002  0.000  0.000  0.000  0.000  0.000  0.387
 
band   4 # energy   64.05913371 # occ.  0.00000000
 
ion      s     py     pz     px    dxy    dyz    dz2    dxz    dx2    tot
  1  0.000  0.000  0.805  0.066  0.000  0.000  0.000  0.000  0.000  0.871
 
band   5 # energy   64.96873631 # occ.  0.00000000
 
ion      s     py     pz     px    dxy    dyz    dz2    dxz    dx2    tot
  1  0.000  0.000  0.035  0.438  0.000  0.000  0.000  0.000  0.000  0.473
 
band   6 # energy  106.63525136 # occ.  0.00000000
 
ion      s     py     pz     px    dxy    dyz    dz2    dxz    dx2    tot
  1  0.077  0.220  0.013  0.374  0.000  0.000  0.000  0.000  0.000  0.683
 
band   7 # energy  109.43118214 # occ.  0.00000000
 
ion      s     py     pz     px    dxy    dyz    dz2    dxz    dx2    tot
  1  0.016  0.275  0.245  0.226  0.000  0.000  0.000  0.000  0.000  0.761
 
band   8 # energy  131.47122388 # occ.  0.00000000
 
ion      s     py     pz     px    dxy    dyz    dz2    dxz    dx2    tot
  1  0.025  0.067  0.423  1.008  0.000  0.000  0.000  0.000  0.000  1.523
 

 k-point    9 :    0.00000000 0.21052632 0.00000000     weight = 0.05000000

band   1 # energy  -10.50397000 # occ.  2.00000000
 
ion      s     py     pz     px    dxy    dyz    dz2    dxz    dx2    tot
  1  0.409  0.008  0.000  0.000  0.000  0.000  0.000  0.000  0.000  0.418
 
band   2 # energy   32.17240409 # occ.  0.00000000
 
ion      s     py     pz     px    dxy    dyz    dz2    dxz    dx2    tot
  1  0.186  0.223  0.000  0.000  0.000  0.000  0.000  0.000  0.000  0.409
 
band   3 # energy   57.81128150 # occ.  0.00000000
 
ion      s     py     pz     px    dxy    dyz    dz2    dxz    dx2    tot
  1  0.286  0.108  0.000  0.000  0.000  0.000  0.000  0.000  0.000  0.394
 
band   4 # energy   66.43948638 # occ.  0.00000000
 
ion      s     py     pz     px    dxy    dyz    dz2    dxz    dx2    tot
  1  0.000  0.000  0.003  0.161  0.000  0.000  0.000  0.000  0.000  0.164
 
band   5 # energy   95.04337082 # occ.  0.00000000
 
ion      s     py     pz     px    dxy    dyz    dz2    dxz    dx2    tot
  1  0.038  0.509  0.014  0.002  0.000  0.000  0.000  0.000  0.000  0.562
 
band   6 # energy  102.30971797 # occ.  0.00000000
 
ion      s     py     pz     px    dxy    dyz    dz2    dxz    dx2    tot
  1  0.108  0.975  0.039  0.001  0.000  0.000  0.000  0.000  0.000  1.123
 
band   7 # energy  134.64485050 # occ.  0.00000000
 
ion      s     py     pz     px    dxy    dyz    dz2    dxz    dx2    tot
  1  0.053  0.068  0.167  0.373  0.000  0.000  0.000  0.000  0.000  0.661
 
band   8 # energy  136.47634911 # occ.  0.00000000
 
ion      s     py     pz     px    dxy    dyz    dz2    dxz    dx2    tot
  1  0.017  0.100  0.592  0.468  0.000  0.000  0.000  0.000  0.000  1.176
 

 k-point   10 :    0.00000000 0.23684211 0.00000000     weight = 0.05000000

band   1 # energy   -9.68868442 # occ.  2.00000000
 
ion      s     py     pz     px    dxy    dyz    dz2    dxz    dx2    tot
  1  0.410  0.011  0.000  0.000  0.000  0.000  0.000  0.000  0.000  0.421
 
band   2 # energy   29.34550599 # occ.  0.00000000
 
ion      s     py     pz     px    dxy    dyz    dz2    dxz    dx2    tot
  1  0.178  0.214  0.000  0.000  0.000  0.000  0.000  0.000  0.000  0.392
 
band   3 # energy   58.51286019 # occ.  0.00000000
 
ion      s     py     pz     px    dxy    dyz    dz2    dxz    dx2    tot
  1  0.296  0.106  0.000  0.001  0.000  0.000  0.000  0.000  0.000  0.403
 
band   4 # energy   65.65550680 # occ.  0.00000000
 
ion      s     py     pz     px    dxy    dyz    dz2    dxz    dx2    tot
  1  0.000  0.000  0.756  0.134  0.000  0.000  0.000  0.000  0.000  0.891
 
band   5 # energy   66.51991072 # occ.  0.00000000
 
ion      s     py     pz     px    dxy    dyz    dz2    dxz    dx2    tot
  1  0.000  0.000  0.075  0.430  0.000  0.000  0.000  0.000  0.000  0.505
 
band   6 # energy  102.01926660 # occ.  0.00000000
 
ion      s     py     pz     px    dxy    dyz    dz2    dxz    dx2    tot
  1  0.002  1.079  0.007  0.066  0.000  0.000  0.000  0.000  0.000  1.153
 
band   7 # energy  133.98148864 # occ.  0.00000000
 
ion      s     py     pz     px    dxy    dyz    dz2    dxz    dx2    tot
  1  0.073  0.120  0.473  0.161  0.000  0.000  0.000  0.000  0.000  0.827
 
band   8 # energy  174.57379812 # occ.  0.00000000
 
ion      s     py     pz     px    dxy    dyz    dz2    dxz    dx2    tot
  1  0.018  0.058  0.143  0.027  0.000  0.000  0.000  0.000  0.000  0.247
 

 k-point   11 :    0.00000000 0.26315789 0.00000000     weight = 0.05000000

band   1 # energy   -8.78322694 # occ.  0.00000000
 
ion      s     py     pz     px    dxy    dyz    dz2    dxz    dx2    tot
  1  0.411  0.013  0.000  0.000  0.000  0.000  0.000  0.000  0.000  0.425
 
band   2 # energy   26.60376671 # occ.  0.00000000
 
ion      s     py     pz     px    dxy    dyz    dz2    dxz    dx2    tot
  1  0.172  0.203  0.000  0.000  0.000  0.000  0.000  0.000  0.000  0.375
 
band   3 # energy   59.57160956 # occ.  0.00000000
 
ion      s     py     pz     px    dxy    dyz    dz2    dxz    dx2    tot
  1  0.291  0.103  0.022  0.015  0.000  0.000  0.000  0.000  0.000  0.431
 
band   4 # energy   67.31984186 # occ.  0.00000000
 
ion      s     py     pz     px    dxy    dyz    dz2    dxz    dx2    tot
  1  0.000  0.000  0.092  0.485  0.000  0.000  0.000  0.000  0.000  0.578
 
band   5 # energy   67.24003656 # occ.  0.00000000
 
ion      s     py     pz     px    dxy    dyz    dz2    dxz    dx2    tot
  1  0.001  0.001  0.465  0.053  0.000  0.000  0.000  0.000  0.000  0.521
 
band   6 # energy   98.32001886 # occ.  0.00000000
 
ion      s     py     pz     px    dxy    dyz    dz2    dxz    dx2    tot
  1  0.069  0.809  0.009  0.001  0.000  0.000  0.000  0.000  0.000  0.888
 
band   7 # energy  131.49771587 # occ.  0.00000000
 
ion      s     py     pz     px    dxy    dyz    dz2    dxz    dx2    tot
  1  0.031  0.324  0.207  1.049  0.000  0.000  0.000  0.000  0.000  1.611
 
band   8 # energy  174.69042721 # occ.  0.00000000
 
ion      s     py     pz     px    dxy    dyz    dz2    dxz    dx2    tot
  1  0.039  0.909  0.169  0.012  0.000  0.000  0.000  0.000  0.000  1.129
 

 k-point   12 :    0.00000000 0.28947368 0.00000000     weight = 0.05000000

band   1 # energy   -7.79101549 # occ.  0.00000000
 
ion      s     py     pz     px    dxy    dyz    dz2    dxz    dx2    tot
  1  0.414  0.016  0.000  0.000  0.000  0.000  0.000  0.000  0.000  0.430
 
band   2 # energy   23.95867181 # occ.  0.00000000
 
ion      s     py     pz     px    dxy    dyz    dz2    dxz    dx2    tot
  1  0.165  0.194  0.000  0.000  0.000  0.000  0.000  0.000  0.000  0.359
 
band   3 # energy   60.16561277 # occ.  0.00000000
 
ion      s     py     pz     px    dxy    dyz    dz2    dxz    dx2    tot
  1  0.314  0.104  0.000  0.000  0.000  0.000  0.000  0.000  0.000  0.418
 
band   4 # energy   67.79286575 # occ.  0.00000000
 
ion      s     py     pz     px    dxy    dyz    dz2    dxz    dx2    tot
  1  0.000  0.000  0.000  0.844  0.000  0.000  0.000  0.000  0.000  0.844
 
band   5 # energy   94.64677153 # occ.  0.00000000
 
ion      s     py     pz     px    dxy    dyz    dz2    dxz    dx2    tot
  1  0.096  0.622  0.065  0.000  0.000  0.000  0.000  0.000  0.000  0.783
 
band   6 # energy   99.35384233 # occ.  0.00000000
 
ion      s     py     pz     px    dxy    dyz    dz2    dxz    dx2    tot
  1  0.000  0.097  0.160  0.495  0.000  0.000  0.000  0.000  0.000  0.752
 
band   7 # energy  139.68068225 # occ.  0.00000000
 
ion      s     py     pz     px    dxy    dyz    dz2    dxz    dx2    tot
  1  0.028  0.114  0.018  1.118  0.000  0.000  0.000  0.000  0.000  1.278
 
band   8 # energy  173.27977618 # occ.  0.00000000
 
ion      s     py     pz     px    dxy    dyz    dz2    dxz    dx2    tot
  1  0.079  0.164  0.332  0.064  0.000  0.000  0.000  0.000  0.000  0.640
 

 k-point   13 :    0.00000000 0.31578947 0.00000000     weight = 0.05000000

band   1 # energy   -6.71723115 # occ.  0.00000000
 
ion      s     py     pz     px    dxy    dyz    dz2    dxz    dx2    tot
  1  0.418  0.018  0.000  0.000  0.000  0.000  0.000  0.000  0.000  0.436
 
band   2 # energy   21.41997106 # occ.  0.00000000
 
ion      s     py     pz     px    dxy    dyz    dz2    dxz    dx2    tot
  1  0.158  0.185  0.000  0.000  0.000  0.000  0.000  0.000  0.000  0.342
 
band   3 # energy   61.10559595 # occ.  0.00000000
 
ion      s     py     pz     px    dxy    dyz    dz2    dxz    dx2    tot
  1  0.323  0.102  0.000  0.000  0.000  0.000  0.000  0.000  0.000  0.425
 
band   4 # energy   69.56825058 # occ.  0.00000000
 
ion      s     py     pz     px    dxy    dyz    dz2    dxz    dx2    tot
  1  0.000  0.000  0.000  0.575  0.000  0.000  0.000  0.000  0.000  0.575
 
band   5 # energy   94.36862102 # occ.  0.00000000
 
ion      s     py     pz     px    dxy    dyz    dz2    dxz    dx2    tot
  1  0.043  0.276  0.329  0.051  0.000  0.000  0.000  0.000  0.000  0.700
 
band   6 # energy   96.78653600 # occ.  0.00000000
 
ion      s     py     pz     px    dxy    dyz    dz2    dxz    dx2    tot
  1  0.000  0.001  0.058  0.391  0.000  0.000  0.000  0.000  0.000  0.451
 
band   7 # energy  134.16395068 # occ.  0.00000000
 
ion      s     py     pz     px    dxy    dyz    dz2    dxz    dx2    tot
  1  0.037  0.065  0.126  0.100  0.000  0.000  0.000  0.000  0.000  0.329
 
band   8 # energy  167.99929478 # occ.  0.00000000
 
ion      s     py     pz     px    dxy    dyz    dz2    dxz    dx2    tot
  1  0.062  0.437  0.001  0.114  0.000  0.000  0.000  0.000  0.000  0.614
 

 k-point   14 :    0.00000000 0.34210526 0.00000000     weight = 0.05000000

band   1 # energy   -5.57763323 # occ.  0.00000000
 
ion      s     py     pz     px    dxy    dyz    dz2    dxz    dx2    tot
  1  0.425  0.019  0.000  0.000  0.000  0.000  0.000  0.000  0.000  0.444
 
band   2 # energy   18.98980970 # occ.  0.00000000
 
ion      s     py     pz     px    dxy    dyz    dz2    dxz    dx2    tot
  1  0.149  0.180  0.000  0.000  0.000  0.000  0.000  0.000  0.000  0.328
 
band   3 # energy   62.05908419 # occ.  0.00000000
 
ion      s     py     pz     px    dxy    dyz    dz2    dxz    dx2    tot
  1  0.334  0.093  0.000  0.000  0.000  0.000  0.000  0.000  0.000  0.427
 
band   4 # energy   71.28341991 # occ.  0.00000000
 
ion      s     py     pz     px    dxy    dyz    dz2    dxz    dx2    tot
  1  0.000  0.000  0.000  0.370  0.000  0.000  0.000  0.000  0.000  0.370
 
band   5 # energy   92.61926597 # occ.  0.00000000
 
ion      s     py     pz     px    dxy    dyz    dz2    dxz    dx2    tot
  1  0.027  0.235  0.225  0.138  0.000  0.000  0.000  0.000  0.000  0.624
 
band   6 # energy  119.76547270 # occ.  0.00000000
 
ion      s     py     pz     px    dxy    dyz    dz2    dxz    dx2    tot
  1  0.031  0.776  0.012  0.048  0.000  0.000  0.000  0.000  0.000  0.866
 
band   7 # energy  139.66172385 # occ.  0.00000000
 
ion      s     py     pz     px    dxy    dyz    dz2    dxz    dx2    tot
  1  0.110  0.038  0.044  0.228  0.000  0.000  0.000  0.000  0.000  0.421
 
band   8 # energy  163.41232833 # occ.  0.00000000
 
ion      s     py     pz     px    dxy    dyz    dz2    dxz    dx2    tot
  1  0.059  0.686  0.002  0.094  0.000  0.000  0.000  0.000  0.000  0.841
 

 k-point   15 :    0.00000000 0.36842105 0.00000000     weight = 0.05000000

band   1 # energy   -4.37135475 # occ.  0.00000000
 
ion      s     py     pz     px    dxy    dyz    dz2    dxz    dx2    tot
  1  0.435  0.021  0.000  0.000  0.000  0.000  0.000  0.000  0.000  0.456
 
band   2 # energy   16.70341051 # occ.  0.00000000
 
ion      s     py     pz     px    dxy    dyz    dz2    dxz    dx2    tot
  1  0.137  0.173  0.000  0.000  0.000  0.000  0.000  0.000  0.000  0.309
 
band   3 # energy   63.07013106 # occ.  0.00000000
 
ion      s     py     pz     px    dxy    dyz    dz2    dxz    dx2    tot
  1  0.346  0.086  0.000  0.000  0.000  0.000  0.000  0.000  0.000  0.432
 
band   4 # energy   72.59864019 # occ.  0.00000000
 
ion      s     py     pz     px    dxy    dyz    dz2    dxz    dx2    tot
  1  0.000  0.000  0.000  0.389  0.000  0.000  0.000  0.000  0.000  0.389
 
band   5 # energy   97.42086093 # occ.  0.00000000
 
ion      s     py     pz     px    dxy    dyz    dz2    dxz    dx2    tot
  1  0.039  0.025  0.398  0.010  0.000  0.000  0.000  0.000  0.000  0.472
 
band   6 # energy  135.52575007 # occ.  0.00000000
 
ion      s     py     pz     px    dxy    dyz    dz2    dxz    dx2    tot
  1  0.027  0.359  0.304  0.011  0.000  0.000  0.000  0.000  0.000  0.701
 
band   7 # energy  143.22230634 # occ.  0.00000000
 
ion      s     py     pz     px    dxy    dyz    dz2    dxz    dx2    tot
  1  0.062  0.055  0.391  0.493  0.000  0.000  0.000  0.000  0.000  1.001
 
band   8 # energy  150.30418898 # occ.  0.00000000
 
ion      s     py     pz     px    dxy    dyz    dz2    dxz    dx2    tot
  1  0.029  0.006  0.167  0.197  0.000  0.000  0.000  0.000  0.000  0.399
 

 k-point   16 :    0.00000000 0.39473684 0.00000000     weight = 0.05000000

band   1 # energy   -3.12935196 # occ.  0.00000000
 
ion      s     py     pz     px    dxy    dyz    dz2    dxz    dx2    tot
  1  0.452  0.021  0.000  0.000  0.000  0.000  0.000  0.000  0.000  0.472
 
band   2 # energy   14.57620852 # occ.  0.00000000
 
ion      s     py     pz     px    dxy    dyz    dz2    dxz    dx2    tot
  1  0.119  0.168  0.000  0.000  0.000  0.000  0.000  0.000  0.000  0.287
 
band   3 # energy   64.06802500 # occ.  0.00000000
 
ion      s     py     pz     px    dxy    dyz    dz2    dxz    dx2    tot
  1  0.362  0.072  0.000  0.000  0.000  0.000  0.000  0.000  0.000  0.434
 
band   4 # energy   73.58712368 # occ.  0.00000000
 
ion      s     py     pz     px    dxy    dyz    dz2    dxz    dx2    tot
  1  0.000  0.000  0.001  0.623  0.000  0.000  0.000  0.000  0.000  0.623
 
band   5 # energy   86.89791567 # occ.  0.00000000
 
ion      s     py     pz     px    dxy    dyz    dz2    dxz    dx2    tot
  1  0.037  0.485  0.062  0.023  0.000  0.000  0.000  0.000  0.000  0.607
 
band   6 # energy   89.14202286 # occ.  0.00000000
 
ion      s     py     pz     px    dxy    dyz    dz2    dxz    dx2    tot
  1  0.000  0.000  0.263  0.260  0.000  0.000  0.000  0.000  0.000  0.524
 
band   7 # energy  145.22480502 # occ.  0.00000000
 
ion      s     py     pz     px    dxy    dyz    dz2    dxz    dx2    tot
  1  0.069  0.338  0.107  0.156  0.000  0.000  0.000  0.000  0.000  0.670
 
band   8 # energy  162.33109454 # occ.  0.00000000
 
ion      s     py     pz     px    dxy    dyz    dz2    dxz    dx2    tot
  1  0.002  0.049  0.038  0.013  0.000  0.000  0.000  0.000  0.000  0.102
 

 k-point   17 :    0.00000000 0.42105263 0.00000000     weight = 0.05000000

band   1 # energy   -1.89640755 # occ.  0.00000000
 
ion      s     py     pz     px    dxy    dyz    dz2    dxz    dx2    tot
  1  0.476  0.019  0.000  0.000  0.000  0.000  0.000  0.000  0.000  0.494
 
band   2 # energy   12.65402755 # occ.  0.00000000
 
ion      s     py     pz     px    dxy    dyz    dz2    dxz    dx2    tot
  1  0.094  0.167  0.000  0.000  0.000  0.000  0.000  0.000  0.000  0.261
 
band   3 # energy   65.00597000 # occ.  0.00000000
 
ion      s     py     pz     px    dxy    dyz    dz2    dxz    dx2    tot
  1  0.379  0.055  0.000  0.000  0.000  0.000  0.000  0.000  0.000  0.435
 
band   4 # energy   75.10692728 # occ.  0.00000000
 
ion      s     py     pz     px    dxy    dyz    dz2    dxz    dx2    tot
  1  0.000  0.000  0.000  0.637  0.000  0.000  0.000  0.000  0.000  0.637
 
band   5 # energy   86.70956323 # occ.  0.00000000
 
ion      s     py     pz     px    dxy    dyz    dz2    dxz    dx2    tot
  1  0.008  0.147  0.023  0.174  0.000  0.000  0.000  0.000  0.000  0.352
 
band   6 # energy  143.71599795 # occ.  0.00000000
 
ion      s     py     pz     px    dxy    dyz    dz2    dxz    dx2    tot
  1  0.032  0.150  0.041  0.134  0.000  0.000  0.000  0.000  0.000  0.357
 
band   7 # energy  144.02159849 # occ.  0.00000000
 
ion      s     py     pz     px    dxy    dyz    dz2    dxz    dx2    tot
  1  0.094  0.392  0.039  0.184  0.000  0.000  0.000  0.000  0.000  0.709
 
band   8 # energy  157.17367179 # occ.  0.00000000
 
ion      s     py     pz     px    dxy    dyz    dz2    dxz    dx2    tot
  1  0.013  0.277  0.347  0.025  0.000  0.000  0.000  0.000  0.000  0.662
 

 k-point   18 :    0.00000000 0.44736842 0.00000000     weight = 0.05000000

band   1 # energy   -0.77100966 # occ.  0.00000000
 
ion      s     py     pz     px    dxy    dyz    dz2    dxz    dx2    tot
  1  0.510  0.011  0.000  0.000  0.000  0.000  0.000  0.000  0.000  0.521
 
band   2 # energy   11.01388223 # occ.  0.00000000
 
ion      s     py     pz     px    dxy    dyz    dz2    dxz    dx2    tot
  1  0.059  0.178  0.000  0.000  0.000  0.000  0.000  0.000  0.000  0.237
 
band   3 # energy   65.76202042 # occ.  0.00000000
 
ion      s     py     pz     px    dxy    dyz    dz2    dxz    dx2    tot
  1  0.399  0.025  0.000  0.000  0.000  0.000  0.000  0.000  0.000  0.425
 
band   4 # energy   76.12105572 # occ.  0.00000000
 
ion      s     py     pz     px    dxy    dyz    dz2    dxz    dx2    tot
  1  0.000  0.000  0.001  0.970  0.000  0.000  0.000  0.000  0.000  0.971
 
band   5 # energy   82.81930494 # occ.  0.00000000
 