<?xml version="1.0" encoding="ISO-8859-1"?>
<modeling>
 <generator>
  <i name="program" type="string">vasp </i>
  <i name="version" type="string">5.2.12  </i>
  <i name="subversion" type="string">11Nov11 complex                                                      parallel </i>
  <i name="platform" type="string">LinuxIFC </i>
  <i name="date" type="string">2018 01 16 </i>
  <i name="time" type="string">21:15:51 </i>
 </generator>
 <incar>
  <i type="string" name="SYSTEM"> jump2</i>
  <i type="int" name="ISTART">     1</i>
  <i type="string" name="PREC">normal</i>
  <i type="string" name="ALGO"> veryfast</i>
  <i type="logical" name="ADDGRID"> T  </i>
  <i name="AMIN">      0.01000000</i>
  <i type="int" name="ICHARG">    11</i>
  <i type="int" name="NELM">   100</i>
  <i type="int" name="IBRION">    -1</i>
  <i name="EDIFF">      0.00010000</i>
  <i name="EDIFFG">     -0.01000000</i>
  <i type="int" name="NSW">     0</i>
  <i type="int" name="ISIF">     2</i>
  <i name="ENCUT">    325.00000000</i>
  <i type="int" name="NBANDS">     8</i>
  <i type="int" name="NEDOS">  2001</i>
  <i type="string" name="LREAL"> Auto</i>
  <i type="logical" name="LPLANE"> T  </i>
  <i type="int" name="ISMEAR">     0</i>
  <i name="SIGMA">      0.10000000</i>
  <i type="logical" name="LWAVE"> T  </i>
  <i type="logical" name="LCHARG"> F  </i>
  <i type="logical" name="LVTOT"> F  </i>
  <i type="logical" name="LVHAR"> F  </i>
  <i type="logical" name="LORBIT"> F  </i>
  <i type="int" name="NELM">   100</i>
 </incar>
 <kpoints>
  <generation param="listgenerated">
   <i name="divisions" type="int">      20 </i>
   <v>       0.00000000       0.00000000       0.00000000 </v>
   <v>       0.00000000       0.50000000       0.00000000 </v>
  </generation>
  <varray name="kpointlist" >
   <v>       0.00000000       0.00000000       0.00000000 </v>
   <v>       0.00000000       0.02631579       0.00000000 </v>
   <v>       0.00000000       0.05263158       0.00000000 </v>
   <v>       0.00000000       0.07894737       0.00000000 </v>
   <v>       0.00000000       0.10526316       0.00000000 </v>
   <v>       0.00000000       0.13157895       0.00000000 </v>
   <v>       0.00000000       0.15789474       0.00000000 </v>
   <v>       0.00000000       0.18421053       0.00000000 </v>
   <v>       0.00000000       0.21052632       0.00000000 </v>
   <v>       0.00000000       0.23684211       0.00000000 </v>
   <v>       0.00000000       0.26315789       0.00000000 </v>
   <v>       0.00000000       0.28947368       0.00000000 </v>
   <v>       0.00000000       0.31578947       0.00000000 </v>
   <v>       0.00000000       0.34210526       0.00000000 </v>
   <v>       0.00000000       0.36842105       0.00000000 </v>
   <v>       0.00000000       0.39473684       0.00000000 </v>
   <v>       0.00000000       0.42105263       0.00000000 </v>
   <v>       0.00000000       0.44736842       0.00000000 </v>
   <v>       0.00000000       0.47368421       0.00000000 </v>
   <v>       0.00000000       0.50000000       0.00000000 </v>
  </varray>
  <varray name="weights" >
   <v>       0.05000000 </v>
   <v>       0.05000000 </v>
   <v>       0.05000000 </v>
   <v>       0.05000000 </v>
   <v>       0.05000000 </v>
   <v>       0.05000000 </v>
   <v>       0.05000000 </v>
   <v>       0.05000000 </v>
   <v>       0.05000000 </v>
   <v>       0.05000000 </v>
   <v>       0.05000000 </v>
   <v>       0.05000000 </v>
   <v>       0.05000000 </v>
   <v>       0.05000000 </v>
   <v>       0.05000000 </v>
   <v>       0.05000000 </v>
   <v>       0.05000000 </v>
   <v>       0.05000000 </v>
   <v>       0.05000000 </v>
   <v>       0.05000000 </v>
  </varray>
 </kpoints>
 <parameters>
  <separator name="general" >
   <i type="string" name="SYSTEM">jump2</i>
   <i type="logical" name="LCOMPAT"> F  </i>
  </separator>
  <separator name="electronic" >
   <i type="string" name="PREC">normal</i>
   <i name="ENMAX">    325.00000000</i>
   <i name="ENAUG">    400.00000000</i>
   <i name="EDIFF">      0.00010000</i>
   <i type="int" name="IALGO">    48</i>
   <i type="int" name="IWAVPR">    10</i>
   <i type="int" name="NBANDS">     8</i>
   <i name="NELECT">      1.00000000</i>
   <i type="int" name="TURBO">     0</i>
   <i type="int" name="IRESTART">     0</i>
   <i type="int" name="NREBOOT">     0</i>
   <i type="int" name="NMIN">     0</i>
   <i name="EREF">      0.00000000</i>
   <separator name="electronic smearing" >
    <i type="int" name="ISMEAR">     0</i>
    <i name="SIGMA">      0.10000000</i>
    <i name="KSPACING">      0.50000000</i>
    <i type="logical" name="KGAMMA"> T  </i>
   </separator>
   <separator name="electronic projectors" >
    <i type="logical" name="LREAL"> T  </i>
    <v name="ROPT">     -0.00050000</v>
    <i type="int" name="LMAXPAW">  -100</i>
    <i type="int" name="LMAXMIX">     2</i>
    <i type="logical" name="NLSPLINE"> F  </i>
   </separator>
   <separator name="electronic startup" >
    <i type="int" name="ISTART">     1</i>
    <i type="int" name="ICHARG">    11</i>
    <i type="int" name="INIWAV">     1</i>
   </separator>
   <separator name="electronic spin" >
    <i type="int" name="ISPIN">     1</i>
    <i type="logical" name="LNONCOLLINEAR"> F  </i>
    <v name="MAGMOM">      1.00000000</v>
    <i name="NUPDOWN">     -1.00000000</i>
    <i type="logical" name="LSORBIT"> F  </i>
    <v name="SAXIS">      0.00000000      0.00000000      1.00000000</v>
    <i type="logical" name="LSPIRAL"> F  </i>
    <v name="QSPIRAL">      0.00000000      0.00000000      0.00000000</v>
    <i type="logical" name="LZEROZ"> F  </i>
   </separator>
   <separator name="electronic exchange-correlation" >
    <i type="logical" name="LASPH"> F  </i>
    <i type="logical" name="LMETAGGA"> F  </i>
   </separator>
   <separator name="electronic convergence" >
    <i type="int" name="NELM">   100</i>
    <i type="int" name="NELMDL">     0</i>
    <i type="int" name="NELMIN">     2</i>
    <i name="ENINI">    325.00000000</i>
    <separator name="electronic convergence detail" >
     <i type="logical" name="LDIAG"> T  </i>
     <i type="logical" name="LSUBROT"> T  </i>
     <i name="WEIMIN">      0.00000000</i>
     <i name="EBREAK">      0.00000313</i>
     <i name="DEPER">      0.30000000</i>
     <i type="int" name="NRMM">     4</i>
     <i name="TIME">      0.40000000</i>
    </separator>
   </separator>
   <separator name="electronic mixer" >
    <i name="AMIX">      0.40000000</i>
    <i name="BMIX">      1.00000000</i>
    <i name="AMIN">      0.01000000</i>
    <i name="AMIX_MAG">      1.60000000</i>
    <i name="BMIX_MAG">      1.00000000</i>
    <separator name="electronic mixer details" >
     <i type="int" name="IMIX">     4</i>
     <i type="int" name="MAXMIX">   -45</i>
     <i name="WC">    100.00000000</i>
     <i type="int" name="INIMIX">     1</i>
     <i type="int" name="MIXPRE">     1</i>
     <i type="int" name="MREMOVE">     5</i>
    </separator>
   </separator>
   <separator name="electronic dipolcorrection" >
    <i type="logical" name="LDIPOL"> F  </i>
    <i type="logical" name="LMONO"> F  </i>
    <i type="int" name="IDIPOL">     0</i>
    <i name="EPSILON">      1.00000000</i>
    <v name="DIPOL">   -100.00000000   -100.00000000   -100.00000000</v>
    <i name="EFIELD">      0.00000000</i>
   </separator>
  </separator>
  <separator name="grids" >
   <i type="int" name="NGX">     6</i>
   <i type="int" name="NGY">     6</i>
   <i type="int" name="NGZ">     6</i>
   <i type="int" name="NGXF">    12</i>
   <i type="int" name="NGYF">    12</i>
   <i type="int" name="NGZF">    12</i>
   <i type="logical" name="ADDGRID"> T  </i>
  </separator>
  <separator name="ionic" >
   <i type="int" name="NSW">     0</i>
   <i type="int" name="IBRION">    -1</i>
   <i type="int" name="ISIF">     2</i>
   <i name="PSTRESS">      0.00000000</i>
   <i name="EDIFFG">     -0.01000000</i>
   <i type="int" name="NFREE">     0</i>
   <i name="POTIM">      0.50000000</i>
   <i name="SMASS">     -3.00000000</i>
   <i name="SCALEE">      1.00000000</i>
  </separator>
  <separator name="ionic md" >
   <i name="TEBEG">      0.00010000</i>
   <i name="TEEND">      0.00010000</i>
   <i type="int" name="NBLOCK">     1</i>
   <i type="int" name="KBLOCK">     1</i>
   <i type="int" name="NPACO">   256</i>
   <i name="APACO">     16.00000000</i>
  </separator>
  <separator name="symmetry" >
   <i type="int" name="ISYM">     2</i>
   <i name="SYMPREC">      0.00001000</i>
  </separator>
  <separator name="dos" >
   <i type="logical" name="LORBIT"> F  </i>
   <v name="RWIGS">     -1.00000000</v>
   <i type="int" name="NEDOS">  2001</i>
   <i name="EMIN">     10.00000000</i>
   <i name="EMAX">    -10.00000000</i>
   <i name="EFERMI">      0.00000000</i>
  </separator>
  <separator name="writing" >
   <i type="int" name="NWRITE">     2</i>
   <i type="logical" name="LWAVE"> T  </i>
   <i type="logical" name="LCHARG"> F  </i>
   <i type="logical" name="LPARD"> F  </i>
   <i type="logical" name="LVTOT"> F  </i>
   <i type="logical" name="LVHAR"> F  </i>
   <i type="logical" name="LELF"> F  </i>
   <i type="logical" name="LOPTICS"> F  </i>
   <v name="STM">      0.00000000      0.00000000      0.00000000      0.00000000      0.00000000      0.00000000      0.00000000</v>
  </separator>
  <separator name="performance" >
   <i type="int" name="NPAR">     4</i>
   <i type="int" name="NSIM">     4</i>
   <i type="int" name="NBLK">    -1</i>
   <i type="logical" name="LPLANE"> T  </i>
   <i type="logical" name="LSCALAPACK"> T  </i>
   <i type="logical" name="LSCAAWARE"> T  </i>
   <i type="logical" name="LSCALU"> F  </i>
   <i type="logical" name="LASYNC"> F  </i>
   <i type="logical" name="LORBITALREAL"> F  </i>
  </separator>
  <separator name="miscellaneous" >
   <i type="int" name="IDIOT">     3</i>
   <i type="logical" name="LMUSIC"> F  </i>
   <v name="POMASS">      1.00000000</v>
   <v name="DARWINR">      0.00000000</v>
   <v name="DARWINV">      1.00000000</v>
   <i type="logical" name="LCORR"> T  </i>
  </separator>
  <i type="logical" name="GGA_COMPAT"> T  </i>
  <i type="logical" name="LBERRY"> F  </i>
  <i type="int" name="ICORELEVEL">     0</i>
  <i type="logical" name="LDAU"> F  </i>
  <i type="int" name="I_CONSTRAINED_M">     0</i>
  <separator name="electronic exchange-correlation" >
   <i type="string" name="GGA">--</i>
   <i type="int" name="VOSKOWN">     0</i>
   <i type="logical" name="LHFCALC"> F  </i>
   <i type="string" name="PRECFOCK"></i>
   <i type="logical" name="LHFONE"> F  </i>
   <i type="logical" name="LRHFCALC"> F  </i>
   <i type="logical" name="LTHOMAS"> F  </i>
   <i type="logical" name="LMODELHF"> F  </i>
   <i name="ENCUT4O">     -1.00000000</i>
   <i type="int" name="EXXOEP">     0</i>
   <i type="int" name="FOURORBIT">     0</i>
   <i name="AEXX">      0.00000000</i>
   <i name="HFALPHA">      0.00000000</i>
   <i name="ALDAX">      1.00000000</i>
   <i name="AGGAX">      1.00000000</i>
   <i name="ALDAC">      1.00000000</i>
   <i name="AGGAC">      1.00000000</i>
   <i type="int" name="NKREDX">     1</i>
   <i type="int" name="NKREDY">     1</i>
   <i type="int" name="NKREDZ">     1</i>
   <i type="logical" name="SHIFTRED"> F  </i>
   <i type="logical" name="ODDONLY"> F  </i>
   <i type="logical" name="EVENONLY"> F  </i>
   <i type="int" name="LMAXFOCK">     0</i>
   <i type="int" name="NMAXFOCKAE">     0</i>
   <i type="logical" name="LFOCKAEDFT"> F  </i>
   <i name="HFSCREEN">      0.00000000</i>
   <i name="HFSCREENC">      0.00000000</i>
  </separator>
  <separator name="vdW DFT" >
   <i type="logical" name="LUSE_VDW"> F  </i>
   <i name="Zab_VDW">     -0.84910000</i>
   <i name="PARAM1">      0.12340000</i>
   <i name="PARAM2">      1.00000000</i>
   <i name="PARAM3">      0.00000000</i>
  </separator>
  <separator name="model GW" >
   <i type="int" name="MODEL_GW">     0</i>
   <i name="MODEL_EPS0">      1.77432948</i>
   <i name="MODEL_ALPHA">      1.00000000</i>
  </separator>
  <separator name="linear response parameters" >
   <i type="logical" name="LEPSILON"> F  </i>
   <i type="logical" name="LRPA"> F  </i>
   <i type="logical" name="LNABLA"> F  </i>
   <i type="logical" name="LVEL"> F  </i>
   <i type="int" name="KINTER">     0</i>
   <i name="CSHIFT">      0.10000000</i>
   <i name="OMEGAMAX">     -1.00000000</i>
  </separator>
  <separator name="orbital magnetization" >
   <i type="logical" name="NUCIND"> F  </i>
   <v name="MAGPOS">      0.00000000      0.00000000      0.00000000</v>
   <i type="logical" name="LNICSALL"> T  </i>
   <i type="logical" name="ORBITALMAG"> F  </i>
   <i type="logical" name="LMAGBLOCH"> F  </i>
   <i type="logical" name="LCHIMAG"> F  </i>
   <i type="logical" name="LGAUGE"> T  </i>
   <i type="int" name="MAGATOM">     0</i>
   <v name="MAGDIPOL">      0.00000000      0.00000000      0.00000000</v>
   <v name="AVECCONST">      0.00000000      0.00000000      0.00000000</v>
  </separator>
  <separator name="response functions" >
   <i type="logical" name="LADDER"> F  </i>
   <i type="logical" name="LHARTREE"> T  </i>
   <i type="int" name="IBSE">     0</i>
   <i type="logical" name="LTCTE"> F  </i>
   <i type="logical" name="LTETE"> F  </i>
   <i type="logical" name="LFXCEPS"> F  </i>
   <i type="logical" name="L2ORDER"> F  </i>
   <i type="logical" name="LUSEW"> F  </i>
   <i name="ENCUTGW">     -2.00000000</i>
   <i name="ENCUTGWSOFT">     -2.00000000</i>
   <i name="ENCUTLF">     -1.00000000</i>
   <i type="int" name="LMAXMP2">    -1</i>
   <i name="SCISSOR">      0.00000000</i>
   <i type="int" name="NOMEGA">     0</i>
   <i type="int" name="NOMEGAR">     0</i>
   <i type="int" name="NBANDSGW">    -1</i>
   <i type="int" name="NBANDSO">    -1</i>
   <i type="int" name="NBANDSV">    -1</i>
   <i name="OPTEMAX">      0.00000000</i>
   <i type="int" name="NELM">   100</i>
   <i type="int" name="DIM">     3</i>
   <i type="int" name="ANTIRES">     0</i>
   <i name="OMEGAMAX">    -30.00000000</i>
   <i name="OMEGATL">   -200.00000000</i>
   <i type="int" name="OMEGAGRID">     0</i>
   <i name="CSHIFT">     -0.10000000</i>
   <i type="logical" name="SELFENERGY"> F  </i>
   <i type="logical" name="LSPECTRAL"> F  </i>
   <i type="logical" name="ODDONLYGW"> F  </i>
   <i type="logical" name="EVENONLYGW"> F  </i>
   <i type="int" name="NKREDLFX">     1</i>
   <i type="int" name="NKREDLFY">     1</i>
   <i type="int" name="NKREDLFZ">     1</i>
   <i type="int" name="MAXMEM">  1800</i>
   <i type="int" name="TELESCOPE">     0</i>
  </separator>
 </parameters>
 <atominfo>
  <atoms>       1 </atoms>
  <types>       1 </types>
  <array name="atoms" >
   <dimension dim="1">ion</dimension>
   <field type="string">element</field>
   <field type="int">atomtype</field>
   <set>
    <rc><c>H </c><c>   1</c></rc>
   </set>
  </array>
  <array name="atomtypes" >
   <dimension dim="1">type</dimension>
   <field type="int">atomspertype</field>
   <field type="string">element</field>
   <field>mass</field>
   <field>valence</field>
   <field type="string">pseudopotential</field>
   <set>
    <rc><c>   1</c><c>H </c><c>      1.00000000</c><c>      1.00000000</c><c> PAW_PBE H 15Jun2001                    </c></rc>
   </set>
  </array>
 </atominfo>
 <structure name="initialpos" >
  <crystal>
   <varray name="basis" >
    <v>       1.43536055       0.00000000       0.00000000 </v>
    <v>       0.00000000       1.43536055       0.00000000 </v>
    <v>       0.00000000       0.00000000       1.43536055 </v>
   </varray>
   <i name="volume">      2.95721580 </i>
   <varray name="rec_basis" >
    <v>       0.69668907       0.00000000       0.00000000 </v>
    <v>       0.00000000       0.69668907       0.00000000 </v>
    <v>       0.00000000       0.00000000       0.69668907 </v>
   </varray>
  </crystal>
  <varray name="positions" >
   <v>       0.00000000       0.00000000       0.00000000 </v>
  </varray>
 </structure>
 <calculation>
  <scstep>
   <time name="diag">    0.02    0.04</time>
   <time name="diis">    0.02    0.04</time>
   <time name="orth">    0.00    0.01</time>
   <time name="total">    0.05    0.10</time>
   <energy>
    <i name="alphaZ">      0.82381590 </i>
    <i name="ewald">    -14.23213143 </i>
    <i name="hartreedc">     -0.36095373 </i>
    <i name="XCdc">      2.76127529 </i>
    <i name="pawpsdc">      1.82026030 </i>
    <i name="pawaedc">     -1.83252046 </i>
    <i name="eentropy">     -0.00000000 </i>
    <i name="bandstr">    -12.22008937 </i>
    <i name="atom">     12.45896517 </i>
    <i name="e_fr_energy">    -10.78137833 </i>
    <i name="e_wo_entrp">    -10.78137833 </i>
    <i name="e_0_energy">    -10.78137833 </i>
   </energy>
  </scstep>
  <scstep>
   <time name="diag">    0.02    0.04</time>
   <time name="diis">    0.02    0.04</time>
   <time name="orth">    0.00    0.01</time>
   <time name="total">    0.04    0.09</time>
   <energy>
    <i name="e_fr_energy">    -10.78235013 </i>
    <i name="e_wo_entrp">    -10.78235013 </i>
    <i name="e_0_energy">    -10.78235013 </i>
   </energy>
  </scstep>
  <scstep>
   <time name="diag">    0.02    0.04</time>
   <time name="diis">    0.02    0.04</time>
   <time name="orth">    0.00    0.01</time>
   <time name="total">    0.04    0.09</time>
   <energy>
    <i name="alphaZ">      0.82381590 </i>
    <i name="ewald">    -14.23213143 </i>
    <i name="hartreedc">     -0.36095373 </i>
    <i name="XCdc">      2.76127529 </i>
    <i name="pawpsdc">      1.82026030 </i>
    <i name="pawaedc">     -1.83252046 </i>
    <i name="eentropy">     -0.00000000 </i>
    <i name="bandstr">    -12.22106122 </i>
    <i name="atom">     12.45896517 </i>
    <i name="e_fr_energy">    -10.78235019 </i>
    <i name="e_wo_entrp">    -10.78235019 </i>
    <i name="e_0_energy">    -10.78235019 </i>
   </energy>
  </scstep>
  <parameters_embedded>
   <separator name="dft+d2" >
    <i type="logical" name="LVDW"> F  </i>
   </separator>
  </parameters_embedded>
  <structure>
   <crystal>
    <varray name="basis" >
     <v>       1.43536055       0.00000000       0.00000000 </v>
     <v>       0.00000000       1.43536055       0.00000000 </v>
     <v>       0.00000000       0.00000000       1.43536055 </v>
    </varray>
    <i name="volume">      2.95721580 </i>
    <varray name="rec_basis" >
     <v>       0.69668907       0.00000000       0.00000000 </v>
     <v>       0.00000000       0.69668907       0.00000000 </v>
     <v>       0.00000000       0.00000000       0.69668907 </v>
    </varray>
   </crystal>
   <varray name="positions" >
    <v>       0.00000000       0.00000000       0.00000000 </v>
   </varray>
  </structure>
  <varray name="forces" >
   <v>       0.00000000       0.00000000       0.00000000 </v>
  </varray>
  <varray name="stress" >
   <v>   -3422.66570488       0.00000000       0.00000000 </v>
   <v>       0.00000000   -3422.66570488       0.00000000 </v>
   <v>      -0.00000000       0.00000000   -3422.66570488 </v>
  </varray>
  <energy>
   <i name="e_fr_energy">    -10.78235019 </i>
   <i name="e_wo_entrp">    -10.78235019 </i>
   <i name="e_0_energy">     -0.00000000 </i>
  </energy>
  <time name="totalsc">    0.17    0.34</time>
  <eigenvalues>
   <array>
    <dimension dim="1">band</dimension>
    <dimension dim="2">kpoint</dimension>
    <dimension dim="3">spin</dimension>
    <field>eigene</field>
    <field>occ</field>
    <set>
     <set comment="spin 1">
      <set comment="kpoint 1">
       <r>  -13.6032    1.0000 </r>
       <r>   50.1446    0.0000 </r>
       <r>   61.6066    0.0000 </r>
       <r>   61.6066    0.0000 </r>
       <r>   63.5986    0.0000 </r>
       <r>  123.2486    0.0000 </r>
       <r>  134.0036    0.0000 </r>
       <r>  136.6392    0.0000 </r>
      </set>
      <set comment="kpoint 2">
       <r>  -13.5544    1.0000 </r>
       <r>   49.7627    0.0000 </r>
       <r>   59.6858    0.0000 </r>
       <r>   61.6714    0.0000 </r>
       <r>   63.5577    0.0000 </r>
       <r>  122.4868    0.0000 </r>
       <r>  132.8728    0.0000 </r>
       <r>  135.3638    0.0000 </r>
      </set>
      <set comment="kpoint 3">
       <r>  -13.4080    1.0000 </r>
       <r>   48.5394    0.0000 </r>
       <r>   57.8146    0.0000 </r>
       <r>   62.0958    0.0000 </r>
       <r>  120.2800    0.0000 </r>
       <r>  132.4824    0.0000 </r>
       <r>  138.3592    0.0000 </r>
       <r>  203.3342    0.0000 </r>
      </set>
      <set comment="kpoint 4">
       <r>  -13.1642    1.0000 </r>
       <r>   46.4820    0.0000 </r>
       <r>   56.8336    0.0000 </r>
       <r>   62.2030    0.0000 </r>
       <r>   73.1959    0.0000 </r>
       <r>  117.5910    0.0000 </r>
       <r>  129.4678    0.0000 </r>
       <r>  198.8105    0.0000 </r>
      </set>
      <set comment="kpoint 5">
       <r>  -12.8231    1.0000 </r>
       <r>   43.8729    0.0000 </r>
       <r>   56.4332    0.0000 </r>
       <r>   62.4088    0.0000 </r>
       <r>   63.4028    0.0000 </r>
       <r>   77.3862    0.0000 </r>
       <r>  114.5942    0.0000 </r>
       <r>  141.8435    0.0000 </r>
      </set>
      <set comment="kpoint 6">
       <r>  -12.3828    1.0000 </r>
       <r>   41.0104    0.0000 </r>
       <r>   56.5299    0.0000 </r>
       <r>   62.8721    0.0000 </r>
       <r>   63.6952    0.0000 </r>
       <r>  111.6880    0.0000 </r>
       <r>  117.3344    0.0000 </r>
       <r>  154.6708    0.0000 </r>
      </set>
      <set comment="kpoint 7">
       <r>  -11.8554    1.0000 </r>
       <r>   38.0127    0.0000 </r>
       <r>   56.8593    0.0000 </r>
       <r>   63.4109    0.0000 </r>
       <r>   63.9683    0.0000 </r>
       <r>   85.6323    0.0000 </r>
       <r>  124.8502    0.0000 </r>
       <r>  150.8396    0.0000 </r>
      </set>
      <set comment="kpoint 8">
       <r>  -11.2268    1.0000 </r>
       <r>   35.0695    0.0000 </r>
       <r>   57.2407    0.0000 </r>
       <r>   64.0591    0.0000 </r>
       <r>   64.9687    0.0000 </r>
       <r>  106.6353    0.0000 </r>
       <r>  109.4312    0.0000 </r>
       <r>  131.4712    0.0000 </r>
      </set>
      <set comment="kpoint 9">
       <r>  -10.5040    1.0000 </r>
       <r>   32.1724    0.0000 </r>
       <r>   57.8113    0.0000 </r>
       <r>   66.4395    0.0000 </r>
       <r>   95.0434    0.0000 </r>
       <r>  102.3097    0.0000 </r>
       <r>  134.6449    0.0000 </r>
       <r>  136.4763    0.0000 </r>
      </set>
      <set comment="kpoint 10">
       <r>   -9.6887    1.0000 </r>
       <r>   29.3455    0.0000 </r>
       <r>   58.5129    0.0000 </r>
       <r>   65.6555    0.0000 </r>
       <r>   66.5199    0.0000 </r>
       <r>  102.0193    0.0000 </r>
       <r>  133.9815    0.0000 </r>
       <r>  174.5738    0.0000 </r>
      </set>
      <set comment="kpoint 11">
       <r>   -8.7832    0.0000 </r>
       <r>   26.6038    0.0000 </r>
       <r>   59.5716    0.0000 </r>
       <r>   67.3198    0.0000 </r>
       <r>   67.2400    0.0000 </r>
       <r>   98.3200    0.0000 </r>
       <r>  131.4977    0.0000 </r>
       <r>  174.6904    0.0000 </r>
      </set>
      <set comment="kpoint 12">
       <r>   -7.7910    0.0000 </r>
       <r>   23.9587    0.0000 </r>
       <r>   60.1656    0.0000 </r>
       <r>   67.7929    0.0000 </r>
       <r>   94.6468    0.0000 </r>
       <r>   99.3538    0.0000 </r>
       <r>  139.6807    0.0000 </r>
       <r>  173.2798    0.0000 </r>
      </set>
      <set comment="kpoint 13">
       <r>   -6.7172    0.0000 </r>
       <r>   21.4200    0.0000 </r>
       <r>   61.1056    0.0000 </r>
       <r>   69.5683    0.0000 </r>
       <r>   94.3686    0.0000 </r>
       <r>   96.7865    0.0000 </r>
       <r>  134.1640    0.0000 </r>
       <r>  167.9993    0.0000 </r>
      </set>
      <set comment="kpoint 14">
       <r>   -5.5776    0.0000 </r>
       <r>   18.9898    0.0000 </r>
       <r>   62.0591    0.0000 </r>
       <r>   71.2834    0.0000 </r>
       <r>   92.6193    0.0000 </r>
       <r>  119.7655    0.0000 </r>
       <r>  139.6617    0.0000 </r>
       <r>  163.4123    0.0000 </r>
      </set>
      <set comment="kpoint 15">
       <r>   -4.3714    0.0000 </r>
       <r>   16.7034    0.0000 </r>
       <r>   63.0701    0.0000 </r>
       <r>   72.5986    0.0000 </r>
       <r>   97.4209    0.0000 </r>
       <r>  135.5258    0.0000 </r>
       <r>  143.2223    0.0000 </r>
       <r>  150.3042    0.0000 </r>
      </set>
      <set comment="kpoint 16">
       <r>   -3.1294    0.0000 </r>
       <r>   14.5762    0.0000 </r>
       <r>   64.0680    0.0000 </r>
       <r>   73.5871    0.0000 </r>
       <r>   86.8979    0.0000 </r>
       <r>   89.1420    0.0000 </r>
       <r>  145.2248    0.0000 </r>
       <r>  162.3311    0.0000 </r>
      </set>
      <set comment="kpoint 17">
       <r>   -1.8964    0.0000 </r>
       <r>   12.6540    0.0000 </r>
       <r>   65.0060    0.0000 </r>
       <r>   75.1069    0.0000 </r>
       <r>   86.7096    0.0000 </r>
       <r>  143.7160    0.0000 </r>
       <r>  144.0216    0.0000 </r>
       <r>  157.1737    0.0000 </r>
      </set>
      <set comment="kpoint 18">
       <r>   -0.7710    0.0000 </r>
       <r>   11.0139    0.0000 </r>
       <r>   65.7620    0.0000 </r>
       <r>   76.1211    0.0000 </r>
       <r>   82.8193    0.0000 </r>
       <r>  140.7164    0.0000 </r>
       <r>  149.8598    0.0000 </r>
       <r>  156.9731    0.0000 </r>
      </set>
      <set comment="kpoint 19">
       <r>    0.0931    0.0000 </r>
       <r>    9.8537    0.0000 </r>
       <r>   66.3017    0.0000 </r>
       <r>   77.2193    0.0000 </r>
       <r>   83.4038    0.0000 </r>
       <r>   83.9358    0.0000 </r>
       <r>  150.7584    0.0000 </r>
       <r>  155.5674    0.0000 </r>
      </set>
      <set comment="kpoint 20">
       <r>    0.4316    0.0000 </r>
       <r>    9.4165    0.0000 </r>
       <r>   66.4935    0.0000 </r>
       <r>   82.4027    0.0000 </r>
       <r>   82.2511    0.0000 </r>
       <r>  148.5454    0.0000 </r>
       <r>  152.2562    0.0000 </r>
       <r>  153.7988    0.0000 </r>
      </set>
     </set>
    </set>
   </array>
  </eigenvalues>
  <separator name="orbital magnetization" >
   <v name="MAGDIPOLOUT">      0.00000000      0.00000000      0.00000000</v>
  </separator>
  <dos>
   <i name="efermi">     -9.23177981 </i>
   <total>
    <array>
     <dimension dim="1">gridpoints</dimension>
     <dimension dim="2">spin</dimension>
     <field>energy</field>
     <field>total</field>
     <field>integrated</field>
     <set>
      <set comment="spin 1">
       <r>   -24.4501     0.0000     0.0000 </r>
       <r>   -24.3308     0.0000     0.0000 </r>
       <r>   -24.2115     0.0000     0.0000 </r>
       <r>   -24.0922     0.0000     0.0000 </r>
       <r>   -23.9728     0.0000     0.0000 </r>
       <r>   -23.8535     0.0000     0.0000 </r>
       <r>   -23.7342     0.0000     0.0000 </r>
       <r>   -23.6149     0.0000     0.0000 </r>
       <r>   -23.4956     0.0000     0.0000 </r>
       <r>   -23.3763     0.0000     0.0000 </r>
       <r>   -23.2570     0.0000     0.0000 </r>
       <r>   -23.1376     0.0000     0.0000 </r>
       <r>   -23.0183     0.0000     0.0000 </r>
       <r>   -22.8990     0.0000     0.0000 </r>
       <r>   -22.7797     0.0000     0.0000 </r>
       <r>   -22.6604     0.0000     0.0000 </r>
       <r>   -22.5411     0.0000     0.0000 </r>
       <r>   -22.4217     0.0000     0.0000 </r>
       <r>   -22.3024     0.0000     0.0000 </r>
       <r>   -22.1831     0.0000     0.0000 </r>
       <r>   -22.0638     0.0000     0.0000 </r>
       <r>   -21.9445     0.0000     0.0000 </r>
       <r>   -21.8252     0.0000     0.0000 </r>
       <r>   -21.7059     0.0000     0.0000 </r>
       <r>   -21.5865     0.0000     0.0000 </r>
       <r>   -21.4672     0.0000     0.0000 </r>
       <r>   -21.3479     0.0000     0.0000 </r>
       <r>   -21.2286     0.0000     0.0000 </r>
       <r>   -21.1093     0.0000     0.0000 </r>
       <r>   -20.9900     0.0000     0.0000 </r>
       <r>   -20.8706     0.0000     0.0000 </r>
       <r>   -20.7513     0.0000     0.0000 </r>
       <r>   -20.6320     0.0000     0.0000 </r>
       <r>   -20.5127     0.0000     0.0000 </r>
       <r>   -20.3934     0.0000     0.0000 </r>
       <r>   -20.2741     0.0000     0.0000 </r>
       <r>   -20.1547     0.0000     0.0000 </r>
       <r>   -20.0354     0.0000     0.0000 </r>
       <r>   -19.9161     0.0000     0.0000 </r>
       <r>   -19.7968     0.0000     0.0000 </r>
       <r>   -19.6775     0.0000     0.0000 </r>
       <r>   -19.5582     0.0000     0.0000 </r>
       <r>   -19.4389     0.0000     0.0000 </r>
       <r>   -19.3195     0.0000     0.0000 </r>
       <r>   -19.2002     0.0000     0.0000 </r>
       <r>   -19.0809     0.0000     0.0000 </r>
       <r>   -18.9616     0.0000     0.0000 </r>
       <r>   -18.8423     0.0000     0.0000 </r>
       <r>   -18.7230     0.0000     0.0000 </r>
       <r>   -18.6036     0.0000     0.0000 </r>
       <r>   -18.4843     0.0000     0.0000 </r>
       <r>   -18.3650     0.0000     0.0000 </r>
       <r>   -18.2457     0.0000     0.0000 </r>
       <r>   -18.1264     0.0000     0.0000 </r>
       <r>   -18.0071     0.0000     0.0000 </r>
       <r>   -17.8878     0.0000     0.0000 </r>
       <r>   -17.7684     0.0000     0.0000 </r>
       <r>   -17.6491     0.0000     0.0000 </r>
       <r>   -17.5298     0.0000     0.0000 </r>
       <r>   -17.4105     0.0000     0.0000 </r>
       <r>   -17.2912     0.0000     0.0000 </r>
       <r>   -17.1719     0.0000     0.0000 </r>
       <r>   -17.0525     0.0000     0.0000 </r>
       <r>   -16.9332     0.0000     0.0000 </r>
       <r>   -16.8139     0.0000     0.0000 </r>
       <r>   -16.6946     0.0000     0.0000 </r>
       <r>   -16.5753     0.0000     0.0000 </r>
       <r>   -16.4560     0.0000     0.0000 </r>
       <r>   -16.3366     0.0000     0.0000 </r>
       <r>   -16.2173     0.0000     0.0000 </r>
       <r>   -16.0980     0.0000     0.0000 </r>
       <r>   -15.9787     0.0000     0.0000 </r>
       <r>   -15.8594     0.0000     0.0000 </r>
       <r>   -15.7401     0.0000     0.0000 </r>
       <r>   -15.6208     0.0000     0.0000 </r>
       <r>   -15.5014     0.0000     0.0000 </r>
       <r>   -15.3821     0.0000     0.0000 </r>
       <r>   -15.2628     0.0000     0.0000 </r>
       <r>   -15.1435     0.0000     0.0000 </r>
       <r>   -15.0242     0.0000     0.0000 </r>
       <r>   -14.9049     0.0000     0.0000 </r>
       <r>   -14.7855     0.0000     0.0000 </r>
       <r>   -14.6662     0.0000     0.0000 </r>
       <r>   -14.5469     0.0000     0.0000 </r>
       <r>   -14.4276     0.0000     0.0000 </r>
       <r>   -14.3083     0.0000     0.0000 </r>
       <r>   -14.1890     0.0000     0.0000 </r>
       <r>   -14.0697     0.0000     0.0000 </r>
       <r>   -13.9503     0.0000     0.0000 </r>
       <r>   -13.8310     0.0006     0.0001 </r>
       <r>   -13.7117     0.0628     0.0076 </r>
       <r>   -13.5924     0.6584     0.0861 </r>
       <r>   -13.4731     0.9720     0.2021 </r>
       <r>   -13.3538     0.6359     0.2780 </r>
       <r>   -13.2344     0.3129     0.3153 </r>
       <r>   -13.1151     0.5053     0.3756 </r>
       <r>   -12.9958     0.2034     0.3999 </r>
       <r>   -12.8765     0.1899     0.4225 </r>
       <r>   -12.7572     0.5023     0.4825 </r>
       <r>   -12.6379     0.1435     0.4996 </r>
       <r>   -12.5186     0.0266     0.5027 </r>
       <r>   -12.3992     0.3192     0.5408 </r>
       <r>   -12.2799     0.4349     0.5927 </r>
       <r>   -12.1606     0.0603     0.5999 </r>
       <r>   -12.0413     0.0043     0.6004 </r>
       <r>   -11.9220     0.1416     0.6173 </r>
       <r>   -11.8027     0.5020     0.6772 </r>
       <r>   -11.6833     0.1847     0.6993 </r>
       <r>   -11.5640     0.0063     0.7000 </r>
       <r>   -11.4447     0.0009     0.7001 </r>
       <r>   -11.3254     0.0675     0.7082 </r>
       <r>   -11.2061     0.4471     0.7615 </r>
       <r>   -11.0868     0.3027     0.7976 </r>
       <r>   -10.9674     0.0199     0.8000 </r>
       <r>   -10.8481     0.0001     0.8000 </r>
       <r>   -10.7288     0.0006     0.8001 </r>
       <r>   -10.6095     0.0562     0.8068 </r>
       <r>   -10.4902     0.4270     0.8577 </r>
       <r>   -10.3709     0.3292     0.8970 </r>
       <r>   -10.2516     0.0249     0.9000 </r>
       <r>   -10.1322     0.0001     0.9000 </r>
       <r>   -10.0129     0.0000     0.9000 </r>
       <r>    -9.8936     0.0016     0.9002 </r>
       <r>    -9.7743     0.0931     0.9113 </r>
       <r>    -9.6550     0.4779     0.9683 </r>
       <r>    -9.5357     0.2527     0.9985 </r>
       <r>    -9.4163     0.0127     1.0000 </r>
       <r>    -9.2970     0.0000     1.0000 </r>
       <r>    -9.1777     0.0000     1.0000 </r>
       <r>    -9.0584     0.0000     1.0000 </r>
       <r>    -8.9391     0.0115     1.0014 </r>
       <r>    -8.8198     0.2421     1.0303 </r>
       <r>    -8.7005     0.4831     1.0879 </r>
       <r>    -8.5811     0.0995     1.0998 </r>
       <r>    -8.4618     0.0018     1.1000 </r>
       <r>    -8.3425     0.0000     1.1000 </r>
       <r>    -8.2232     0.0000     1.1000 </r>
       <r>    -8.1039     0.0000     1.1000 </r>
       <r>    -7.9846     0.0026     1.1003 </r>
       <r>    -7.8652     0.1205     1.1147 </r>
       <r>    -7.7459     0.4955     1.1738 </r>
       <r>    -7.6266     0.2111     1.1990 </r>
       <r>    -7.5073     0.0084     1.2000 </r>
       <r>    -7.3880     0.0000     1.2000 </r>
       <r>    -7.2687     0.0000     1.2000 </r>
       <r>    -7.1494     0.0000     1.2000 </r>
       <r>    -7.0300     0.0000     1.2000 </r>
       <r>    -6.9107     0.0026     1.2003 </r>
       <r>    -6.7914     0.1207     1.2147 </r>
       <r>    -6.6721     0.4956     1.2738 </r>
       <r>    -6.5528     0.2109     1.2990 </r>
       <r>    -6.4335     0.0084     1.3000 </r>
       <r>    -6.3141     0.0000     1.3000 </r>
       <r>    -6.1948     0.0000     1.3000 </r>
       <r>    -6.0755     0.0000     1.3000 </r>
       <r>    -5.9562     0.0000     1.3000 </r>
       <r>    -5.8369     0.0001     1.3000 </r>
       <r>    -5.7176     0.0199     1.3024 </r>
       <r>    -5.5982     0.3029     1.3385 </r>
       <r>    -5.4789     0.4470     1.3919 </r>
       <r>    -5.3596     0.0673     1.3999 </r>
       <r>    -5.2403     0.0009     1.4000 </r>
       <r>    -5.1210     0.0000     1.4000 </r>
       <r>    -5.0017     0.0000     1.4000 </r>
       <r>    -4.8824     0.0000     1.4000 </r>
       <r>    -4.7630     0.0000     1.4000 </r>
       <r>    -4.6437     0.0000     1.4000 </r>
       <r>    -4.5244     0.0127     1.4015 </r>
       <r>    -4.4051     0.2526     1.4317 </r>
       <r>    -4.2858     0.4780     1.4887 </r>
       <r>    -4.1665     0.0932     1.4998 </r>
       <r>    -4.0471     0.0016     1.5000 </r>
       <r>    -3.9278     0.0000     1.5000 </r>
       <r>    -3.8085     0.0000     1.5000 </r>
       <r>    -3.6892     0.0000     1.5000 </r>
       <r>    -3.5699     0.0000     1.5000 </r>
       <r>    -3.4506     0.0000     1.5000 </r>
       <r>    -3.3313     0.0018     1.5002 </r>
       <r>    -3.2119     0.1000     1.5121 </r>
       <r>    -3.0926     0.4835     1.5698 </r>
       <r>    -2.9733     0.2414     1.5986 </r>
       <r>    -2.8540     0.0114     1.6000 </r>
       <r>    -2.7347     0.0000     1.6000 </r>
       <r>    -2.6154     0.0000     1.6000 </r>
       <r>    -2.4960     0.0000     1.6000 </r>
       <r>    -2.3767     0.0000     1.6000 </r>
       <r>    -2.2574     0.0000     1.6000 </r>
       <r>    -2.1381     0.0003     1.6000 </r>
       <r>    -2.0188     0.0347     1.6042 </r>
       <r>    -1.8995     0.3696     1.6483 </r>
       <r>    -1.7801     0.3915     1.6950 </r>
       <r>    -1.6608     0.0416     1.7000 </r>
       <r>    -1.5415     0.0004     1.7000 </r>
       <r>    -1.4222     0.0000     1.7000 </r>
       <r>    -1.3029     0.0000     1.7000 </r>
       <r>    -1.1836     0.0000     1.7000 </r>
       <r>    -1.0643     0.0000     1.7000 </r>
       <r>    -0.9449     0.0058     1.7007 </r>
       <r>    -0.8256     0.1785     1.7220 </r>
       <r>    -0.7063     0.5028     1.7820 </r>
       <r>    -0.5870     0.1471     1.7995 </r>
       <r>    -0.4677     0.0039     1.8000 </r>
       <r>    -0.3484     0.0000     1.8000 </r>
       <r>    -0.2290     0.0000     1.8000 </r>
       <r>    -0.1097     0.0017     1.8002 </r>
       <r>     0.0096     0.0978     1.8119 </r>
       <r>     0.1289     0.4818     1.8694 </r>
       <r>     0.2482     0.2489     1.8991 </r>
       <r>     0.3675     0.1607     1.9182 </r>
       <r>     0.4868     0.5031     1.9783 </r>
       <r>     0.6062     0.1765     1.9993 </r>
       <r>     0.7255     0.0057     2.0000 </r>
       <r>     0.8448     0.0000     2.0000 </r>
       <r>     0.9641     0.0000     2.0000 </r>
       <r>     1.0834     0.0000     2.0000 </r>
       <r>     1.2027     0.0000     2.0000 </r>
       <r>     1.3221     0.0000     2.0000 </r>
       <r>     1.4414     0.0000     2.0000 </r>
       <r>     1.5607     0.0000     2.0000 </r>
       <r>     1.6800     0.0000     2.0000 </r>
       <r>     1.7993     0.0000     2.0000 </r>
       <r>     1.9186     0.0000     2.0000 </r>
       <r>     2.0379     0.0000     2.0000 </r>
       <r>     2.1573     0.0000     2.0000 </r>
       <r>     2.2766     0.0000     2.0000 </r>
       <r>     2.3959     0.0000     2.0000 </r>
       <r>     2.5152     0.0000     2.0000 </r>
       <r>     2.6345     0.0000     2.0000 </r>
       <r>     2.7538     0.0000     2.0000 </r>
       <r>     2.8732     0.0000     2.0000 </r>
       <r>     2.9925     0.0000     2.0000 </r>
       <r>     3.1118     0.0000     2.0000 </r>
       <r>     3.2311     0.0000     2.0000 </r>
       <r>     3.3504     0.0000     2.0000 </r>
       <r>     3.4697     0.0000     2.0000 </r>
       <r>     3.5891     0.0000     2.0000 </r>
       <r>     3.7084     0.0000     2.0000 </r>
       <r>     3.8277     0.0000     2.0000 </r>
       <r>     3.9470     0.0000     2.0000 </r>
       <r>     4.0663     0.0000     2.0000 </r>
       <r>     4.1856     0.0000     2.0000 </r>
       <r>     4.3049     0.0000     2.0000 </r>
       <r>     4.4243     0.0000     2.0000 </r>
       <r>     4.5436     0.0000     2.0000 </r>
       <r>     4.6629     0.0000     2.0000 </r>
       <r>     4.7822     0.0000     2.0000 </r>
       <r>     4.9015     0.0000     2.0000 </r>
       <r>     5.0208     0.0000     2.0000 </r>
       <r>     5.1402     0.0000     2.0000 </r>
       <r>     5.2595     0.0000     2.0000 </r>
       <r>     5.3788     0.0000     2.0000 </r>
       <r>     5.4981     0.0000     2.0000 </r>
       <r>     5.6174     0.0000     2.0000 </r>
       <r>     5.7367     0.0000     2.0000 </r>
       <r>     5.8560     0.0000     2.0000 </r>
       <r>     5.9754     0.0000     2.0000 </r>
       <r>     6.0947     0.0000     2.0000 </r>
       <r>     6.2140     0.0000     2.0000 </r>
       <r>     6.3333     0.0000     2.0000 </r>
       <r>     6.4526     0.0000     2.0000 </r>
       <r>     6.5719     0.0000     2.0000 </r>
       <r>     6.6913     0.0000     2.0000 </r>
       <r>     6.8106     0.0000     2.0000 </r>
       <r>     6.9299     0.0000     2.0000 </r>
       <r>     7.0492     0.0000     2.0000 </r>
       <r>     7.1685     0.0000     2.0000 </r>
       <r>     7.2878     0.0000     2.0000 </r>
       <r>     7.4072     0.0000     2.0000 </r>
       <r>     7.5265     0.0000     2.0000 </r>
       <r>     7.6458     0.0000     2.0000 </r>
       <r>     7.7651     0.0000     2.0000 </r>
       <r>     7.8844     0.0000     2.0000 </r>
       <r>     8.0037     0.0000     2.0000 </r>
       <r>     8.1230     0.0000     2.0000 </r>
       <r>     8.2424     0.0000     2.0000 </r>
       <r>     8.3617     0.0000     2.0000 </r>
       <r>     8.4810     0.0000     2.0000 </r>
       <r>     8.6003     0.0000     2.0000 </r>
       <r>     8.7196     0.0000     2.0000 </r>
       <r>     8.8389     0.0000     2.0000 </r>
       <r>     8.9583     0.0000     2.0000 </r>
       <r>     9.0776     0.0000     2.0000 </r>
       <r>     9.1969     0.0008     2.0001 </r>
       <r>     9.3162     0.0646     2.0078 </r>
       <r>     9.4355     0.4426     2.0606 </r>
       <r>     9.5548     0.3090     2.0975 </r>
       <r>     9.6741     0.0256     2.1005 </r>
       <r>     9.7935     0.1607     2.1197 </r>
       <r>     9.9128     0.5038     2.1798 </r>
       <r>    10.0321     0.1642     2.1994 </r>
       <r>    10.1514     0.0049     2.2000 </r>
       <r>    10.2707     0.0000     2.2000 </r>
       <r>    10.3900     0.0000     2.2000 </r>
       <r>    10.5094     0.0000     2.2000 </r>
       <r>    10.6287     0.0000     2.2000 </r>
       <r>    10.7480     0.0001     2.2000 </r>
       <r>    10.8673     0.0159     2.2019 </r>
       <r>    10.9866     0.2773     2.2350 </r>
       <r>    11.1059     0.4640     2.2904 </r>
       <r>    11.2252     0.0797     2.2999 </r>
       <r>    11.3446     0.0012     2.3000 </r>
       <r>    11.4639     0.0000     2.3000 </r>
       <r>    11.5832     0.0000     2.3000 </r>
       <r>    11.7025     0.0000     2.3000 </r>
       <r>    11.8218     0.0000     2.3000 </r>
       <r>    11.9411     0.0000     2.3000 </r>
       <r>    12.0605     0.0000     2.3000 </r>
       <r>    12.1798     0.0000     2.3000 </r>
       <r>    12.2991     0.0000     2.3000 </r>
       <r>    12.4184     0.0004     2.3000 </r>
       <r>    12.5377     0.0415     2.3050 </r>
       <r>    12.6570     0.3914     2.3517 </r>
       <r>    12.7764     0.3698     2.3958 </r>
       <r>    12.8957     0.0348     2.4000 </r>
       <r>    13.0150     0.0003     2.4000 </r>
       <r>    13.1343     0.0000     2.4000 </r>
       <r>    13.2536     0.0000     2.4000 </r>
       <r>    13.3729     0.0000     2.4000 </r>
       <r>    13.4922     0.0000     2.4000 </r>
       <r>    13.6116     0.0000     2.4000 </r>
       <r>    13.7309     0.0000     2.4000 </r>
       <r>    13.8502     0.0000     2.4000 </r>
       <r>    13.9695     0.0000     2.4000 </r>
       <r>    14.0888     0.0000     2.4000 </r>
       <r>    14.2081     0.0000     2.4000 </r>
       <r>    14.3275     0.0002     2.4000 </r>
       <r>    14.4468     0.0280     2.4034 </r>
       <r>    14.5661     0.3432     2.4443 </r>
       <r>    14.6854     0.4154     2.4939 </r>
       <r>    14.8047     0.0508     2.4999 </r>
       <r>    14.9240     0.0005     2.5000 </r>
       <r>    15.0433     0.0000     2.5000 </r>
       <r>    15.1627     0.0000     2.5000 </r>
       <r>    15.2820     0.0000     2.5000 </r>
       <r>    15.4013     0.0000     2.5000 </r>
       <r>    15.5206     0.0000     2.5000 </r>
       <r>    15.6399     0.0000     2.5000 </r>
       <r>    15.7592     0.0000     2.5000 </r>
       <r>    15.8786     0.0000     2.5000 </r>
       <r>    15.9979     0.0000     2.5000 </r>
       <r>    16.1172     0.0000     2.5000 </r>
       <r>    16.2365     0.0000     2.5000 </r>
       <r>    16.3558     0.0000     2.5000 </r>
       <r>    16.4751     0.0005     2.5001 </r>
       <r>    16.5945     0.0512     2.5062 </r>
       <r>    16.7138     0.4162     2.5558 </r>
       <r>    16.8331     0.3423     2.5967 </r>
       <r>    16.9524     0.0278     2.6000 </r>
       <r>    17.0717     0.0002     2.6000 </r>
       <r>    17.1910     0.0000     2.6000 </r>
       <r>    17.3103     0.0000     2.6000 </r>
       <r>    17.4297     0.0000     2.6000 </r>
       <r>    17.5490     0.0000     2.6000 </r>
       <r>    17.6683     0.0000     2.6000 </r>
       <r>    17.7876     0.0000     2.6000 </r>
       <r>    17.9069     0.0000     2.6000 </r>
       <r>    18.0262     0.0000     2.6000 </r>
       <r>    18.1456     0.0000     2.6000 </r>
       <r>    18.2649     0.0000     2.6000 </r>
       <r>    18.3842     0.0000     2.6000 </r>
       <r>    18.5035     0.0000     2.6000 </r>
       <r>    18.6228     0.0000     2.6000 </r>
       <r>    18.7421     0.0002     2.6000 </r>
       <r>    18.8614     0.0289     2.6035 </r>
       <r>    18.9808     0.3473     2.6449 </r>
       <r>    19.1001     0.4119     2.6941 </r>
       <r>    19.2194     0.0493     2.6999 </r>
       <r>    19.3387     0.0005     2.7000 </r>
       <r>    19.4580     0.0000     2.7000 </r>
       <r>    19.5773     0.0000     2.7000 </r>
       <r>    19.6967     0.0000     2.7000 </r>
       <r>    19.8160     0.0000     2.7000 </r>
       <r>    19.9353     0.0000     2.7000 </r>
       <r>    20.0546     0.0000     2.7000 </r>
       <r>    20.1739     0.0000     2.7000 </r>
       <r>    20.2932     0.0000     2.7000 </r>
       <r>    20.4125     0.0000     2.7000 </r>
       <r>    20.5319     0.0000     2.7000 </r>
       <r>    20.6512     0.0000     2.7000 </r>
       <r>    20.7705     0.0000     2.7000 </r>
       <r>    20.8898     0.0000     2.7000 </r>
       <r>    21.0091     0.0000     2.7000 </r>
       <r>    21.1284     0.0000     2.7000 </r>
       <r>    21.2478     0.0062     2.7007 </r>
       <r>    21.3671     0.1842     2.7227 </r>
       <r>    21.4864     0.5020     2.7826 </r>
       <r>    21.6057     0.1420     2.7996 </r>
       <r>    21.7250     0.0036     2.8000 </r>
       <r>    21.8443     0.0000     2.8000 </r>
       <r>    21.9637     0.0000     2.8000 </r>
       <r>    22.0830     0.0000     2.8000 </r>
       <r>    22.2023     0.0000     2.8000 </r>
       <r>    22.3216     0.0000     2.8000 </r>
       <r>    22.4409     0.0000     2.8000 </r>
       <r>    22.5602     0.0000     2.8000 </r>
       <r>    22.6795     0.0000     2.8000 </r>
       <r>    22.7989     0.0000     2.8000 </r>
       <r>    22.9182     0.0000     2.8000 </r>
       <r>    23.0375     0.0000     2.8000 </r>
       <r>    23.1568     0.0000     2.8000 </r>
       <r>    23.2761     0.0000     2.8000 </r>
       <r>    23.3954     0.0000     2.8000 </r>
       <r>    23.5148     0.0000     2.8000 </r>
       <r>    23.6341     0.0000     2.8000 </r>
       <r>    23.7534     0.0015     2.8002 </r>
       <r>    23.8727     0.0923     2.8112 </r>
       <r>    23.9920     0.4772     2.8681 </r>
       <r>    24.1113     0.2541     2.8985 </r>
       <r>    24.2306     0.0129     2.9000 </r>
       <r>    24.3500     0.0001     2.9000 </r>
       <r>    24.4693     0.0000     2.9000 </r>
       <r>    24.5886     0.0000     2.9000 </r>
       <r>    24.7079     0.0000     2.9000 </r>
       <r>    24.8272     0.0000     2.9000 </r>
       <r>    24.9465     0.0000     2.9000 </r>
       <r>    25.0659     0.0000     2.9000 </r>
       <r>    25.1852     0.0000     2.9000 </r>
       <r>    25.3045     0.0000     2.9000 </r>
       <r>    25.4238     0.0000     2.9000 </r>
       <r>    25.5431     0.0000     2.9000 </r>
       <r>    25.6624     0.0000     2.9000 </r>
       <r>    25.7818     0.0000     2.9000 </r>
       <r>    25.9011     0.0000     2.9000 </r>
       <r>    26.0204     0.0000     2.9000 </r>
       <r>    26.1397     0.0000     2.9000 </r>
       <r>    26.2590     0.0000     2.9000 </r>
       <r>    26.3783     0.0006     2.9001 </r>
       <r>    26.4976     0.0553     2.9067 </r>
       <r>    26.6170     0.4252     2.9574 </r>
       <r>    26.7363     0.3315     2.9970 </r>
       <r>    26.8556     0.0254     3.0000 </r>
       <r>    26.9749     0.0002     3.0000 </r>
       <r>    27.0942     0.0000     3.0000 </r>
       <r>    27.2135     0.0000     3.0000 </r>
       <r>    27.3329     0.0000     3.0000 </r>
       <r>    27.4522     0.0000     3.0000 </r>
       <r>    27.5715     0.0000     3.0000 </r>
       <r>    27.6908     0.0000     3.0000 </r>
       <r>    27.8101     0.0000     3.0000 </r>
       <r>    27.9294     0.0000     3.0000 </r>
       <r>    28.0487     0.0000     3.0000 </r>
       <r>    28.1681     0.0000     3.0000 </r>
       <r>    28.2874     0.0000     3.0000 </r>
       <r>    28.4067     0.0000     3.0000 </r>
       <r>    28.5260     0.0000     3.0000 </r>
       <r>    28.6453     0.0000     3.0000 </r>
       <r>    28.7646     0.0000     3.0000 </r>
       <r>    28.8840     0.0000     3.0000 </r>
       <r>    29.0033     0.0000     3.0000 </r>
       <r>    29.1226     0.0007     3.0001 </r>
       <r>    29.2419     0.0592     3.0071 </r>
       <r>    29.3612     0.4329     3.0588 </r>
       <r>    29.4805     0.3218     3.0972 </r>
       <r>    29.5998     0.0234     3.1000 </r>
       <r>    29.7192     0.0001     3.1000 </r>
       <r>    29.8385     0.0000     3.1000 </r>
       <r>    29.9578     0.0000     3.1000 </r>
       <r>    30.0771     0.0000     3.1000 </r>
       <r>    30.1964     0.0000     3.1000 </r>
       <r>    30.3157     0.0000     3.1000 </r>
       <r>    30.4351     0.0000     3.1000 </r>
       <r>    30.5544     0.0000     3.1000 </r>
       <r>    30.6737     0.0000     3.1000 </r>
       <r>    30.7930     0.0000     3.1000 </r>
       <r>    30.9123     0.0000     3.1000 </r>
       <r>    31.0316     0.0000     3.1000 </r>
       <r>    31.1510     0.0000     3.1000 </r>
       <r>    31.2703     0.0000     3.1000 </r>
       <r>    31.3896     0.0000     3.1000 </r>
       <r>    31.5089     0.0000     3.1000 </r>
       <r>    31.6282     0.0000     3.1000 </r>
       <r>    31.7475     0.0000     3.1000 </r>
       <r>    31.8668     0.0000     3.1000 </r>
       <r>    31.9862     0.0035     3.1004 </r>
       <r>    32.1055     0.1406     3.1172 </r>
       <r>    32.2248     0.5018     3.1771 </r>
       <r>    32.3441     0.1859     3.1992 </r>
       <r>    32.4634     0.0063     3.2000 </r>
       <r>    32.5827     0.0000     3.2000 </r>
       <r>    32.7021     0.0000     3.2000 </r>
       <r>    32.8214     0.0000     3.2000 </r>
       <r>    32.9407     0.0000     3.2000 </r>
       <r>    33.0600     0.0000     3.2000 </r>
       <r>    33.1793     0.0000     3.2000 </r>
       <r>    33.2986     0.0000     3.2000 </r>
       <r>    33.4179     0.0000     3.2000 </r>
       <r>    33.5373     0.0000     3.2000 </r>
       <r>    33.6566     0.0000     3.2000 </r>
       <r>    33.7759     0.0000     3.2000 </r>
       <r>    33.8952     0.0000     3.2000 </r>
       <r>    34.0145     0.0000     3.2000 </r>
       <r>    34.1338     0.0000     3.2000 </r>
       <r>    34.2532     0.0000     3.2000 </r>
       <r>    34.3725     0.0000     3.2000 </r>
       <r>    34.4918     0.0000     3.2000 </r>
       <r>    34.6111     0.0000     3.2000 </r>
       <r>    34.7304     0.0000     3.2000 </r>
       <r>    34.8497     0.0008     3.2001 </r>
       <r>    34.9691     0.0644     3.2078 </r>
       <r>    35.0884     0.4422     3.2605 </r>
       <r>    35.2077     0.3095     3.2975 </r>
       <r>    35.3270     0.0211     3.3000 </r>
       <r>    35.4463     0.0001     3.3000 </r>
       <r>    35.5656     0.0000     3.3000 </r>
       <r>    35.6849     0.0000     3.3000 </r>
       <r>    35.8043     0.0000     3.3000 </r>
       <r>    35.9236     0.0000     3.3000 </r>
       <r>    36.0429     0.0000     3.3000 </r>
       <r>    36.1622     0.0000     3.3000 </r>
       <r>    36.2815     0.0000     3.3000 </r>
       <r>    36.4008     0.0000     3.3000 </r>
       <r>    36.5202     0.0000     3.3000 </r>
       <r>    36.6395     0.0000     3.3000 </r>
       <r>    36.7588     0.0000     3.3000 </r>
       <r>    36.8781     0.0000     3.3000 </r>
       <r>    36.9974     0.0000     3.3000 </r>
       <r>    37.1167     0.0000     3.3000 </r>
       <r>    37.2360     0.0000     3.3000 </r>
       <r>    37.3554     0.0000     3.3000 </r>
       <r>    37.4747     0.0000     3.3000 </r>
       <r>    37.5940     0.0000     3.3000 </r>
       <r>    37.7133     0.0000     3.3000 </r>
       <r>    37.8326     0.0045     3.3005 </r>
       <r>    37.9519     0.1588     3.3195 </r>
       <r>    38.0713     0.5038     3.3796 </r>
       <r>    38.1906     0.1660     3.3994 </r>
       <r>    38.3099     0.0050     3.4000 </r>
       <r>    38.4292     0.0000     3.4000 </r>
       <r>    38.5485     0.0000     3.4000 </r>
       <r>    38.6678     0.0000     3.4000 </r>
       <r>    38.7871     0.0000     3.4000 </r>
       <r>    38.9065     0.0000     3.4000 </r>
       <r>    39.0258     0.0000     3.4000 </r>
       <r>    39.1451     0.0000     3.4000 </r>
       <r>    39.2644     0.0000     3.4000 </r>
       <r>    39.3837     0.0000     3.4000 </r>
       <r>    39.5030     0.0000     3.4000 </r>
       <r>    39.6224     0.0000     3.4000 </r>
       <r>    39.7417     0.0000     3.4000 </r>
       <r>    39.8610     0.0000     3.4000 </r>
       <r>    39.9803     0.0000     3.4000 </r>
       <r>    40.0996     0.0000     3.4000 </r>
       <r>    40.2189     0.0000     3.4000 </r>
       <r>    40.3383     0.0000     3.4000 </r>
       <r>    40.4576     0.0000     3.4000 </r>
       <r>    40.5769     0.0000     3.4000 </r>
       <r>    40.6962     0.0000     3.4000 </r>
       <r>    40.8155     0.0024     3.4003 </r>
       <r>    40.9348     0.1169     3.4142 </r>
       <r>    41.0541     0.4939     3.4732 </r>
       <r>    41.1735     0.2160     3.4989 </r>
       <r>    41.2928     0.0088     3.5000 </r>
       <r>    41.4121     0.0000     3.5000 </r>
       <r>    41.5314     0.0000     3.5000 </r>
       <r>    41.6507     0.0000     3.5000 </r>
       <r>    41.7700     0.0000     3.5000 </r>
       <r>    41.8894     0.0000     3.5000 </r>
       <r>    42.0087     0.0000     3.5000 </r>
       <r>    42.1280     0.0000     3.5000 </r>
       <r>    42.2473     0.0000     3.5000 </r>
       <r>    42.3666     0.0000     3.5000 </r>
       <r>    42.4859     0.0000     3.5000 </r>
       <r>    42.6052     0.0000     3.5000 </r>
       <r>    42.7246     0.0000     3.5000 </r>
       <r>    42.8439     0.0000     3.5000 </r>
       <r>    42.9632     0.0000     3.5000 </r>
       <r>    43.0825     0.0000     3.5000 </r>
       <r>    43.2018     0.0000     3.5000 </r>
       <r>    43.3211     0.0000     3.5000 </r>
       <r>    43.4405     0.0000     3.5000 </r>
       <r>    43.5598     0.0000     3.5000 </r>
       <r>    43.6791     0.0026     3.5003 </r>
       <r>    43.7984     0.1198     3.5146 </r>
       <r>    43.9177     0.4952     3.5737 </r>
       <r>    44.0370     0.2121     3.5990 </r>
       <r>    44.1564     0.0085     3.6000 </r>
       <r>    44.2757     0.0000     3.6000 </r>
       <r>    44.3950     0.0000     3.6000 </r>
       <r>    44.5143     0.0000     3.6000 </r>
       <r>    44.6336     0.0000     3.6000 </r>
       <r>    44.7529     0.0000     3.6000 </r>
       <r>    44.8722     0.0000     3.6000 </r>
       <r>    44.9916     0.0000     3.6000 </r>
       <r>    45.1109     0.0000     3.6000 </r>
       <r>    45.2302     0.0000     3.6000 </r>
       <r>    45.3495     0.0000     3.6000 </r>
       <r>    45.4688     0.0000     3.6000 </r>
       <r>    45.5881     0.0000     3.6000 </r>
       <r>    45.7075     0.0000     3.6000 </r>
       <r>    45.8268     0.0000     3.6000 </r>
       <r>    45.9461     0.0000     3.6000 </r>
       <r>    46.0654     0.0000     3.6000 </r>
       <r>    46.1847     0.0000     3.6000 </r>
       <r>    46.3040     0.0049     3.6006 </r>
       <r>    46.4233     0.1654     3.6203 </r>
       <r>    46.5427     0.5038     3.6804 </r>
       <r>    46.6620     0.1594     3.6995 </r>
       <r>    46.7813     0.0046     3.7000 </r>
       <r>    46.9006     0.0000     3.7000 </r>
       <r>    47.0199     0.0000     3.7000 </r>
       <r>    47.1392     0.0000     3.7000 </r>
       <r>    47.2586     0.0000     3.7000 </r>
       <r>    47.3779     0.0000     3.7000 </r>
       <r>    47.4972     0.0000     3.7000 </r>
       <r>    47.6165     0.0000     3.7000 </r>
       <r>    47.7358     0.0000     3.7000 </r>
       <r>    47.8551     0.0000     3.7000 </r>
       <r>    47.9744     0.0000     3.7000 </r>
       <r>    48.0938     0.0000     3.7000 </r>
       <r>    48.2131     0.0000     3.7000 </r>
       <r>    48.3324     0.0014     3.7002 </r>
       <r>    48.4517     0.0887     3.7108 </r>
       <r>    48.5710     0.4738     3.7673 </r>
       <r>    48.6903     0.2604     3.7984 </r>
       <r>    48.8097     0.0137     3.8000 </r>
       <r>    48.9290     0.0001     3.8000 </r>
       <r>    49.0483     0.0000     3.8000 </r>
       <r>    49.1676     0.0000     3.8000 </r>
       <r>    49.2869     0.0000     3.8000 </r>
       <r>    49.4062     0.0000     3.8000 </r>
       <r>    49.5256     0.0003     3.8000 </r>
       <r>    49.6449     0.0398     3.8048 </r>
       <r>    49.7642     0.3861     3.8509 </r>
       <r>    49.8835     0.3753     3.8956 </r>
       <r>    50.0028     0.0551     3.9022 </r>
       <r>    50.1221     0.2960     3.9375 </r>
       <r>    50.2414     0.4520     3.9915 </r>
       <r>    50.3608     0.0707     3.9999 </r>
       <r>    50.4801     0.0009     4.0000 </r>
       <r>    50.5994     0.0000     4.0000 </r>
       <r>    50.7187     0.0000     4.0000 </r>
       <r>    50.8380     0.0000     4.0000 </r>
       <r>    50.9573     0.0000     4.0000 </r>
       <r>    51.0767     0.0000     4.0000 </r>
       <r>    51.1960     0.0000     4.0000 </r>
       <r>    51.3153     0.0000     4.0000 </r>
       <r>    51.4346     0.0000     4.0000 </r>
       <r>    51.5539     0.0000     4.0000 </r>
       <r>    51.6732     0.0000     4.0000 </r>
       <r>    51.7925     0.0000     4.0000 </r>
       <r>    51.9119     0.0000     4.0000 </r>
       <r>    52.0312     0.0000     4.0000 </r>
       <r>    52.1505     0.0000     4.0000 </r>
       <r>    52.2698     0.0000     4.0000 </r>
       <r>    52.3891     0.0000     4.0000 </r>
       <r>    52.5084     0.0000     4.0000 </r>
       <r>    52.6278     0.0000     4.0000 </r>
       <r>    52.7471     0.0000     4.0000 </r>
       <r>    52.8664     0.0000     4.0000 </r>
       <r>    52.9857     0.0000     4.0000 </r>
       <r>    53.1050     0.0000     4.0000 </r>
       <r>    53.2243     0.0000     4.0000 </r>
       <r>    53.3436     0.0000     4.0000 </r>
       <r>    53.4630     0.0000     4.0000 </r>
       <r>    53.5823     0.0000     4.0000 </r>
       <r>    53.7016     0.0000     4.0000 </r>
       <r>    53.8209     0.0000     4.0000 </r>
       <r>    53.9402     0.0000     4.0000 </r>
       <r>    54.0595     0.0000     4.0000 </r>
       <r>    54.1789     0.0000     4.0000 </r>
       <r>    54.2982     0.0000     4.0000 </r>
       <r>    54.4175     0.0000     4.0000 </r>
       <r>    54.5368     0.0000     4.0000 </r>
       <r>    54.6561     0.0000     4.0000 </r>
       <r>    54.7754     0.0000     4.0000 </r>
       <r>    54.8948     0.0000     4.0000 </r>
       <r>    55.0141     0.0000     4.0000 </r>
       <r>    55.1334     0.0000     4.0000 </r>
       <r>    55.2527     0.0000     4.0000 </r>
       <r>    55.3720     0.0000     4.0000 </r>
       <r>    55.4913     0.0000     4.0000 </r>
       <r>    55.6106     0.0000     4.0000 </r>
       <r>    55.7300     0.0000     4.0000 </r>
       <r>    55.8493     0.0000     4.0000 </r>
       <r>    55.9686     0.0000     4.0000 </r>
       <r>    56.0879     0.0000     4.0000 </r>
       <r>    56.2072     0.0006     4.0001 </r>
       <r>    56.3265     0.0562     4.0068 </r>
       <r>    56.4459     0.5200     4.0688 </r>
       <r>    56.5652     0.8144     4.1660 </r>
       <r>    56.6845     0.2930     4.2010 </r>
       <r>    56.8038     0.4555     4.2553 </r>
       <r>    56.9231     0.9729     4.3714 </r>
       <r>    57.0424     0.2365     4.3996 </r>
       <r>    57.1617     0.1139     4.4132 </r>
       <r>    57.2811     0.4893     4.4716 </r>
       <r>    57.4004     0.2281     4.4988 </r>
       <r>    57.5197     0.0100     4.5000 </r>
       <r>    57.6390     0.0117     4.5014 </r>
       <r>    57.7583     0.3570     4.5440 </r>
       <r>    57.8776     1.0055     4.6640 </r>
       <r>    57.9970     0.2943     4.6991 </r>
       <r>    58.1163     0.0078     4.7000 </r>
       <r>    58.2356     0.0001     4.7000 </r>
       <r>    58.3549     0.0106     4.7013 </r>
       <r>    58.4742     0.2344     4.7292 </r>
       <r>    58.5935     0.4867     4.7873 </r>
       <r>    58.7129     0.1044     4.7998 </r>
       <r>    58.8322     0.0020     4.8000 </r>
       <r>    58.9515     0.0000     4.8000 </r>
       <r>    59.0708     0.0000     4.8000 </r>
       <r>    59.1901     0.0000     4.8000 </r>
       <r>    59.3094     0.0001     4.8000 </r>
       <r>    59.4287     0.0182     4.8022 </r>
       <r>    59.5481     0.3130     4.8395 </r>
       <r>    59.6674     0.7663     4.9310 </r>
       <r>    59.7867     0.5133     4.9922 </r>
       <r>    59.9060     0.0646     4.9999 </r>
       <r>    60.0253     0.0205     5.0024 </r>
       <r>    60.1446     0.3015     5.0383 </r>
       <r>    60.2640     0.4479     5.0918 </r>
       <r>    60.3833     0.0680     5.0999 </r>
       <r>    60.5026     0.0009     5.1000 </r>
       <r>    60.6219     0.0000     5.1000 </r>
       <r>    60.7412     0.0000     5.1000 </r>
       <r>    60.8605     0.0002     5.1000 </r>
       <r>    60.9798     0.0314     5.1038 </r>
       <r>    61.0992     0.3571     5.1464 </r>
       <r>    61.2185     0.4032     5.1945 </r>
       <r>    61.3378     0.0460     5.2000 </r>
       <r>    61.4571     0.0302     5.2036 </r>
       <r>    61.5764     0.6059     5.2759 </r>
       <r>    61.6957     1.3981     5.4427 </r>
       <r>    61.8151     0.4603     5.4976 </r>
       <r>    61.9344     0.0621     5.5050 </r>
       <r>    62.0537     0.5972     5.5763 </r>
       <r>    62.1730     1.1587     5.7145 </r>
       <r>    62.2923     0.6690     5.7943 </r>
       <r>    62.4116     0.4787     5.8514 </r>
       <r>    62.5309     0.3718     5.8958 </r>
       <r>    62.6503     0.0357     5.9001 </r>
       <r>    62.7696     0.0612     5.9074 </r>
       <r>    62.8889     0.4405     5.9599 </r>
       <r>    63.0082     0.4730     6.0164 </r>
       <r>    63.1275     0.5263     6.0791 </r>
       <r>    63.2468     0.1896     6.1018 </r>
       <r>    63.3662     0.4623     6.1569 </r>
       <r>    63.4855     1.1511     6.2943 </r>
       <r>    63.6048     1.2026     6.4378 </r>
       <r>    63.7241     1.0343     6.5612 </r>
       <r>    63.8434     0.3442     6.6022 </r>
       <r>    63.9627     0.5039     6.6623 </r>
       <r>    64.0821     1.2810     6.8152 </r>
       <r>    64.2014     0.6670     6.8948 </r>
       <r>    64.3207     0.0436     6.9000 </r>
       <r>    64.4400     0.0002     6.9000 </r>
       <r>    64.5593     0.0000     6.9000 </r>
       <r>    64.6786     0.0000     6.9000 </r>
       <r>    64.7979     0.0079     6.9009 </r>
       <r>    64.9173     0.2754     6.9338 </r>
       <r>    65.0366     0.9727     7.0499 </r>
       <r>    65.1559     0.4024     7.0979 </r>
       <r>    65.2752     0.0176     7.1000 </r>
       <r>    65.3945     0.0002     7.1000 </r>
       <r>    65.5138     0.0190     7.1023 </r>
       <r>    65.6332     0.3247     7.1410 </r>
       <r>    65.7525     0.7970     7.2361 </r>
       <r>    65.8718     0.4840     7.2939 </r>
       <r>    65.9911     0.0510     7.2999 </r>
       <r>    66.1104     0.0034     7.3003 </r>
       <r>    66.2297     0.1279     7.3156 </r>
       <r>    66.3490     0.6045     7.3877 </r>
       <r>    66.4684     1.1448     7.5243 </r>
       <r>    66.5877     1.2390     7.6721 </r>
       <r>    66.7070     0.2289     7.6995 </r>
       <r>    66.8263     0.0045     7.7000 </r>
       <r>    66.9456     0.0000     7.7000 </r>
       <r>    67.0649     0.0057     7.7007 </r>
       <r>    67.1843     0.1977     7.7243 </r>
       <r>    67.3036     0.8229     7.8225 </r>
       <r>    67.4229     0.5851     7.8923 </r>
       <r>    67.5422     0.0643     7.8999 </r>
       <r>    67.6615     0.0270     7.9032 </r>
       <r>    67.7808     0.3359     7.9432 </r>
       <r>    67.9002     0.4215     7.9935 </r>
       <r>    68.0195     0.0536     7.9999 </r>
       <r>    68.1388     0.0006     8.0000 </r>
       <r>    68.2581     0.0000     8.0000 </r>
       <r>    68.3774     0.0000     8.0000 </r>
       <r>    68.4967     0.0000     8.0000 </r>
       <r>    68.6160     0.0000     8.0000 </r>
       <r>    68.7354     0.0000     8.0000 </r>
       <r>    68.8547     0.0000     8.0000 </r>
       <r>    68.9740     0.0000     8.0000 </r>
       <r>    69.0933     0.0000     8.0000 </r>
       <r>    69.2126     0.0000     8.0000 </r>
       <r>    69.3319     0.0003     8.0000 </r>
       <r>    69.4513     0.0407     8.0049 </r>
       <r>    69.5706     0.3889     8.0513 </r>
       <r>    69.6899     0.3723     8.0957 </r>
       <r>    69.8092     0.0355     8.1000 </r>
       <r>    69.9285     0.0003     8.1000 </r>
       <r>    70.0478     0.0000     8.1000 </r>
       <r>    70.1671     0.0000     8.1000 </r>
       <r>    70.2865     0.0000     8.1000 </r>
       <r>    70.4058     0.0000     8.1000 </r>
       <r>    70.5251     0.0000     8.1000 </r>
       <r>    70.6444     0.0000     8.1000 </r>
       <r>    70.7637     0.0000     8.1000 </r>
       <r>    70.8830     0.0000     8.1000 </r>
       <r>    71.0024     0.0000     8.1000 </r>
       <r>    71.1217     0.0093     8.1011 </r>
       <r>    71.2410     0.2205     8.1274 </r>
       <r>    71.3603     0.4922     8.1862 </r>
       <r>    71.4796     0.1137     8.1997 </r>
       <r>    71.5989     0.0023     8.2000 </r>
       <r>    71.7182     0.0000     8.2000 </r>
       <r>    71.8376     0.0000     8.2000 </r>
       <r>    71.9569     0.0000     8.2000 </r>
       <r>    72.0762     0.0000     8.2000 </r>
       <r>    72.1955     0.0000     8.2000 </r>
       <r>    72.3148     0.0000     8.2000 </r>
       <r>    72.4341     0.0084     8.2010 </r>
       <r>    72.5535     0.2107     8.2261 </r>
       <r>    72.6728     0.4956     8.2853 </r>
       <r>    72.7921     0.1208     8.2997 </r>
       <r>    72.9114     0.0026     8.3000 </r>
       <r>    73.0307     0.0082     8.3010 </r>
       <r>    73.1500     0.2084     8.3258 </r>
       <r>    73.2694     0.4963     8.3851 </r>
       <r>    73.3887     0.1246     8.3999 </r>
       <r>    73.5080     0.1108     8.4132 </r>
       <r>    73.6273     0.4891     8.4715 </r>
       <r>    73.7466     0.2287     8.4988 </r>
       <r>    73.8659     0.0101     8.5000 </r>
       <r>    73.9852     0.0000     8.5000 </r>
       <r>    74.1046     0.0000     8.5000 </r>
       <r>    74.2239     0.0000     8.5000 </r>
       <r>    74.3432     0.0000     8.5000 </r>
       <r>    74.4625     0.0000     8.5000 </r>
       <r>    74.5818     0.0000     8.5000 </r>
       <r>    74.7011     0.0000     8.5000 </r>
       <r>    74.8205     0.0000     8.5000 </r>
       <r>    74.9398     0.0076     8.5009 </r>
       <r>    75.0591     0.2014     8.5249 </r>
       <r>    75.1784     0.4983     8.5844 </r>
       <r>    75.2977     0.1279     8.5997 </r>
       <r>    75.4170     0.0029     8.6000 </r>
       <r>    75.5363     0.0000     8.6000 </r>
       <r>    75.6557     0.0000     8.6000 </r>
       <r>    75.7750     0.0000     8.6000 </r>
       <r>    75.8943     0.0006     8.6001 </r>
       <r>    76.0136     0.0533     8.6064 </r>
       <r>    76.1329     0.4210     8.6567 </r>
       <r>    76.2522     0.3366     8.6968 </r>
       <r>    76.3716     0.0265     8.7000 </r>
       <r>    76.4909     0.0002     8.7000 </r>
       <r>    76.6102     0.0000     8.7000 </r>
       <r>    76.7295     0.0000     8.7000 </r>
       <r>    76.8488     0.0000     8.7000 </r>
       <r>    76.9681     0.0002     8.7000 </r>
       <r>    77.0875     0.0259     8.7031 </r>
       <r>    77.2068     0.3387     8.7435 </r>
       <r>    77.3261     0.5840     8.8132 </r>
       <r>    77.4454     0.5581     8.8798 </r>
       <r>    77.5647     0.1645     8.8994 </r>
       <r>    77.6840     0.0048     8.9000 </r>
       <r>    77.8033     0.0000     8.9000 </r>
       <r>    77.9227     0.0000     8.9000 </r>
       <r>    78.0420     0.0000     8.9000 </r>
       <r>    78.1613     0.0000     8.9000 </r>
       <r>    78.2806     0.0000     8.9000 </r>
       <r>    78.3999     0.0000     8.9000 </r>
       <r>    78.5192     0.0000     8.9000 </r>
       <r>    78.6386     0.0000     8.9000 </r>
       <r>    78.7579     0.0000     8.9000 </r>
       <r>    78.8772     0.0000     8.9000 </r>
       <r>    78.9965     0.0000     8.9000 </r>
       <r>    79.1158     0.0000     8.9000 </r>
       <r>    79.2351     0.0000     8.9000 </r>
       <r>    79.3544     0.0000     8.9000 </r>
       <r>    79.4738     0.0000     8.9000 </r>
       <r>    79.5931     0.0000     8.9000 </r>
       <r>    79.7124     0.0000     8.9000 </r>
       <r>    79.8317     0.0000     8.9000 </r>
       <r>    79.9510     0.0000     8.9000 </r>
       <r>    80.0703     0.0000     8.9000 </r>
       <r>    80.1897     0.0000     8.9000 </r>
       <r>    80.3090     0.0000     8.9000 </r>
       <r>    80.4283     0.0000     8.9000 </r>
       <r>    80.5476     0.0000     8.9000 </r>
       <r>    80.6669     0.0000     8.9000 </r>
       <r>    80.7862     0.0000     8.9000 </r>
       <r>    80.9055     0.0000     8.9000 </r>
       <r>    81.0249     0.0000     8.9000 </r>
       <r>    81.1442     0.0000     8.9000 </r>
       <r>    81.2635     0.0000     8.9000 </r>
       <r>    81.3828     0.0000     8.9000 </r>
       <r>    81.5021     0.0000     8.9000 </r>
       <r>    81.6214     0.0000     8.9000 </r>
       <r>    81.7408     0.0000     8.9000 </r>
       <r>    81.8601     0.0000     8.9000 </r>
       <r>    81.9794     0.0001     8.9000 </r>
       <r>    82.0987     0.0130     8.9016 </r>
       <r>    82.2180     0.2590     8.9325 </r>
       <r>    82.3373     0.6216     9.0066 </r>
       <r>    82.4567     0.5943     9.0775 </r>
       <r>    82.5760     0.1826     9.0993 </r>
       <r>    82.6953     0.0390     9.1040 </r>
       <r>    82.8146     0.3635     9.1473 </r>
       <r>    82.9339     0.3973     9.1947 </r>
       <r>    83.0532     0.0436     9.2000 </r>
       <r>    83.1725     0.0008     9.2001 </r>
       <r>    83.2919     0.0470     9.2057 </r>
       <r>    83.4112     0.4062     9.2541 </r>
       <r>    83.5305     0.3537     9.2963 </r>
       <r>    83.6498     0.0305     9.3000 </r>
       <r>    83.7691     0.0079     9.3009 </r>
       <r>    83.8884     0.2031     9.3252 </r>
       <r>    84.0078     0.4979     9.3846 </r>
       <r>    84.1271     0.1265     9.3997 </r>
       <r>    84.2464     0.0029     9.4000 </r>
       <r>    84.3657     0.0000     9.4000 </r>
       <r>    84.4850     0.0000     9.4000 </r>
       <r>    84.6043     0.0000     9.4000 </r>
       <r>    84.7236     0.0000     9.4000 </r>
       <r>    84.8430     0.0000     9.4000 </r>
       <r>    84.9623     0.0000     9.4000 </r>
       <r>    85.0816     0.0000     9.4000 </r>
       <r>    85.2009     0.0000     9.4000 </r>
       <r>    85.3202     0.0000     9.4000 </r>
       <r>    85.4395     0.0027     9.4003 </r>
       <r>    85.5589     0.1226     9.4149 </r>
       <r>    85.6782     0.4964     9.4742 </r>
       <r>    85.7975     0.2083     9.4990 </r>
       <r>    85.9168     0.0081     9.5000 </r>
       <r>    86.0361     0.0000     9.5000 </r>
       <r>    86.1554     0.0000     9.5000 </r>
       <r>    86.2748     0.0000     9.5000 </r>
       <r>    86.3941     0.0000     9.5000 </r>
       <r>    86.5134     0.0023     9.5003 </r>
       <r>    86.6327     0.1138     9.5139 </r>
       <r>    86.7520     0.5086     9.5745 </r>
       <r>    86.8713     0.5003     9.6342 </r>
       <r>    86.9906     0.4716     9.6905 </r>
       <r>    87.1100     0.0784     9.6999 </r>
       <r>    87.2293     0.0011     9.7000 </r>
       <r>    87.3486     0.0000     9.7000 </r>
       <r>    87.4679     0.0000     9.7000 </r>
       <r>    87.5872     0.0000     9.7000 </r>
       <r>    87.7065     0.0000     9.7000 </r>
       <r>    87.8259     0.0000     9.7000 </r>
       <r>    87.9452     0.0000     9.7000 </r>
       <r>    88.0645     0.0000     9.7000 </r>
       <r>    88.1838     0.0000     9.7000 </r>
       <r>    88.3031     0.0000     9.7000 </r>
       <r>    88.4224     0.0000     9.7000 </r>
       <r>    88.5417     0.0000     9.7000 </r>
       <r>    88.6611     0.0000     9.7000 </r>
       <r>    88.7804     0.0000     9.7000 </r>
       <r>    88.8997     0.0003     9.7000 </r>
       <r>    89.0190     0.0341     9.7041 </r>
       <r>    89.1383     0.3672     9.7479 </r>
       <r>    89.2576     0.3938     9.7949 </r>
       <r>    89.3770     0.0424     9.8000 </r>
       <r>    89.4963     0.0004     9.8000 </r>
       <r>    89.6156     0.0000     9.8000 </r>
       <r>    89.7349     0.0000     9.8000 </r>
       <r>    89.8542     0.0000     9.8000 </r>
       <r>    89.9735     0.0000     9.8000 </r>
       <r>    90.0928     0.0000     9.8000 </r>
       <r>    90.2122     0.0000     9.8000 </r>
       <r>    90.3315     0.0000     9.8000 </r>
       <r>    90.4508     0.0000     9.8000 </r>
       <r>    90.5701     0.0000     9.8000 </r>
       <r>    90.6894     0.0000     9.8000 </r>
       <r>    90.8087     0.0000     9.8000 </r>
       <r>    90.9281     0.0000     9.8000 </r>
       <r>    91.0474     0.0000     9.8000 </r>
       <r>    91.1667     0.0000     9.8000 </r>
       <r>    91.2860     0.0000     9.8000 </r>
       <r>    91.4053     0.0000     9.8000 </r>
       <r>    91.5246     0.0000     9.8000 </r>
       <r>    91.6440     0.0000     9.8000 </r>
       <r>    91.7633     0.0000     9.8000 </r>
       <r>    91.8826     0.0000     9.8000 </r>
       <r>    92.0019     0.0000     9.8000 </r>
       <r>    92.1212     0.0000     9.8000 </r>
       <r>    92.2405     0.0000     9.8000 </r>
       <r>    92.3598     0.0001     9.8000 </r>
       <r>    92.4792     0.0198     9.8024 </r>
       <r>    92.5985     0.3022     9.8384 </r>
       <r>    92.7178     0.4474     9.8918 </r>
       <r>    92.8371     0.0677     9.8999 </r>
       <r>    92.9564     0.0009     9.9000 </r>
       <r>    93.0757     0.0000     9.9000 </r>
       <r>    93.1951     0.0000     9.9000 </r>
       <r>    93.3144     0.0000     9.9000 </r>
       <r>    93.4337     0.0000     9.9000 </r>
       <r>    93.5530     0.0000     9.9000 </r>
       <r>    93.6723     0.0000     9.9000 </r>
       <r>    93.7916     0.0000     9.9000 </r>
       <r>    93.9109     0.0000     9.9000 </r>
       <r>    94.0303     0.0000     9.9000 </r>
       <r>    94.1496     0.0008     9.9001 </r>
       <r>    94.2689     0.0656     9.9079 </r>
       <r>    94.3882     0.4442     9.9609 </r>
       <r>    94.5075     0.3273    10.0000 </r>
       <r>    94.6268     0.3262    10.0389 </r>
       <r>    94.7462     0.4452    10.0920 </r>
       <r>    94.8655     0.0711    10.1005 </r>
       <r>    94.9848     0.1666    10.1204 </r>
       <r>    95.1041     0.5038    10.1805 </r>
       <r>    95.2234     0.1590    10.1995 </r>
       <r>    95.3427     0.0046    10.2000 </r>
       <r>    95.4621     0.0000    10.2000 </r>
       <r>    95.5814     0.0000    10.2000 </r>
       <r>    95.7007     0.0000    10.2000 </r>
       <r>    95.8200     0.0000    10.2000 </r>
       <r>    95.9393     0.0000    10.2000 </r>
       <r>    96.0586     0.0000    10.2000 </r>
       <r>    96.1779     0.0000    10.2000 </r>
       <r>    96.2973     0.0000    10.2000 </r>
       <r>    96.4166     0.0000    10.2000 </r>
       <r>    96.5359     0.0002    10.2000 </r>
       <r>    96.6552     0.0263    10.2032 </r>
       <r>    96.7745     0.3360    10.2433 </r>
       <r>    96.8938     0.4215    10.2935 </r>
       <r>    97.0132     0.0536    10.2999 </r>
       <r>    97.1325     0.0006    10.3000 </r>
       <r>    97.2518     0.0070    10.3008 </r>
       <r>    97.3711     0.1948    10.3241 </r>
       <r>    97.4904     0.5000    10.3837 </r>
       <r>    97.6097     0.1331    10.3996 </r>
       <r>    97.7290     0.0032    10.4000 </r>
       <r>    97.8484     0.0000    10.4000 </r>
       <r>    97.9677     0.0000    10.4000 </r>
       <r>    98.0870     0.0004    10.4000 </r>
       <r>    98.2063     0.0448    10.4054 </r>
       <r>    98.3256     0.4004    10.4532 </r>
       <r>    98.4449     0.3602    10.4961 </r>
       <r>    98.5643     0.0322    10.5000 </r>
       <r>    98.6836     0.0002    10.5000 </r>
       <r>    98.8029     0.0000    10.5000 </r>
       <r>    98.9222     0.0000    10.5000 </r>
       <r>    99.0415     0.0000    10.5000 </r>
       <r>    99.1608     0.0027    10.5003 </r>
       <r>    99.2801     0.1219    10.5149 </r>
       <r>    99.3995     0.4961    10.5741 </r>
       <r>    99.5188     0.2092    10.5990 </r>
       <r>    99.6381     0.0082    10.6000 </r>
       <r>    99.7574     0.0000    10.6000 </r>
       <r>    99.8767     0.0000    10.6000 </r>
       <r>    99.9960     0.0000    10.6000 </r>
       <r>   100.1154     0.0000    10.6000 </r>
       <r>   100.2347     0.0000    10.6000 </r>
       <r>   100.3540     0.0000    10.6000 </r>
       <r>   100.4733     0.0000    10.6000 </r>
       <r>   100.5926     0.0000    10.6000 </r>
       <r>   100.7119     0.0000    10.6000 </r>
       <r>   100.8313     0.0000    10.6000 </r>
       <r>   100.9506     0.0000    10.6000 </r>
       <r>   101.0699     0.0000    10.6000 </r>
       <r>   101.1892     0.0000    10.6000 </r>
       <r>   101.3085     0.0000    10.6000 </r>
       <r>   101.4278     0.0000    10.6000 </r>
       <r>   101.5471     0.0000    10.6000 </r>
       <r>   101.6665     0.0000    10.6000 </r>
       <r>   101.7858     0.0004    10.6000 </r>
       <r>   101.9051     0.0442    10.6053 </r>
       <r>   102.0244     0.3988    10.6529 </r>
       <r>   102.1437     0.3698    10.6970 </r>
       <r>   102.2630     0.2381    10.7254 </r>
       <r>   102.3824     0.4975    10.7848 </r>
       <r>   102.5017     0.1247    10.7997 </r>
       <r>   102.6210     0.0028    10.8000 </r>
       <r>   102.7403     0.0000    10.8000 </r>
       <r>   102.8596     0.0000    10.8000 </r>
       <r>   102.9789     0.0000    10.8000 </r>
       <r>   103.0982     0.0000    10.8000 </r>
       <r>   103.2176     0.0000    10.8000 </r>
       <r>   103.3369     0.0000    10.8000 </r>
       <r>   103.4562     0.0000    10.8000 </r>
       <r>   103.5755     0.0000    10.8000 </r>
       <r>   103.6948     0.0000    10.8000 </r>
       <r>   103.8141     0.0000    10.8000 </r>
       <r>   103.9335     0.0000    10.8000 </r>
       <r>   104.0528     0.0000    10.8000 </r>
       <r>   104.1721     0.0000    10.8000 </r>
       <r>   104.2914     0.0000    10.8000 </r>
       <r>   104.4107     0.0000    10.8000 </r>
       <r>   104.5300     0.0000    10.8000 </r>
       <r>   104.6493     0.0000    10.8000 </r>
       <r>   104.7687     0.0000    10.8000 </r>
       <r>   104.8880     0.0000    10.8000 </r>
       <r>   105.0073     0.0000    10.8000 </r>
       <r>   105.1266     0.0000    10.8000 </r>
       <r>   105.2459     0.0000    10.8000 </r>
       <r>   105.3652     0.0000    10.8000 </r>
       <r>   105.4846     0.0000    10.8000 </r>
[...]
     <dimension dim="3">spin</dimension>
     <field>eigene</field>
     <field>occ</field>
     <set>
      <set comment="spin 1">
       <set comment="kpoint 1">
        <r>  -13.6032    1.0000 </r>
        <r>   50.1446    0.0000 </r>
        <r>   61.6066    0.0000 </r>
        <r>   61.6066    0.0000 </r>
        <r>   63.5986    0.0000 </r>
        <r>  123.2486    0.0000 </r>
        <r>  134.0036    0.0000 </r>
        <r>  136.6392    0.0000 </r>
       </set>
       <set comment="kpoint 2">
        <r>  -13.5544    1.0000 </r>
        <r>   49.7627    0.0000 </r>
        <r>   59.6858    0.0000 </r>
        <r>   61.6714    0.0000 </r>
        <r>   63.5577    0.0000 </r>
        <r>  122.4868    0.0000 </r>
        <r>  132.8728    0.0000 </r>
        <r>  135.3638    0.0000 </r>
       </set>
       <set comment="kpoint 3">
        <r>  -13.4080    1.0000 </r>
        <r>   48.5394    0.0000 </r>
        <r>   57.8146    0.0000 </r>
        <r>   62.0958    0.0000 </r>
        <r>  120.2800    0.0000 </r>
        <r>  132.4824    0.0000 </r>
        <r>  138.3592    0.0000 </r>
        <r>  203.3342    0.0000 </r>
       </set>
       <set comment="kpoint 4">
        <r>  -13.1642    1.0000 </r>
        <r>   46.4820    0.0000 </r>
        <r>   56.8336    0.0000 </r>
        <r>   62.2030    0.0000 </r>
        <r>   73.1959    0.0000 </r>
        <r>  117.5910    0.0000 </r>
        <r>  129.4678    0.0000 </r>
        <r>  198.8105    0.0000 </r>
       </set>
       <set comment="kpoint 5">
        <r>  -12.8231    1.0000 </r>
        <r>   43.8729    0.0000 </r>
        <r>   56.4332    0.0000 </r>
        <r>   62.4088    0.0000 </r>
        <r>   63.4028    0.0000 </r>
        <r>   77.3862    0.0000 </r>
        <r>  114.5942    0.0000 </r>
        <r>  141.8435    0.0000 </r>
       </set>
       <set comment="kpoint 6">
        <r>  -12.3828    1.0000 </r>
        <r>   41.0104    0.0000 </r>
        <r>   56.5299    0.0000 </r>
        <r>   62.8721    0.0000 </r>
        <r>   63.6952    0.0000 </r>
        <r>  111.6880    0.0000 </r>
        <r>  117.3344    0.0000 </r>
        <r>  154.6708    0.0000 </r>
       </set>
       <set comment="kpoint 7">
        <r>  -11.8554    1.0000 </r>
        <r>   38.0127    0.0000 </r>
        <r>   56.8593    0.0000 </r>
        <r>   63.4109    0.0000 </r>
        <r>   63.9683    0.0000 </r>
        <r>   85.6323    0.0000 </r>
        <r>  124.8502    0.0000 </r>
        <r>  150.8396    0.0000 </r>
       </set>
       <set comment="kpoint 8">
        <r>  -11.2268    1.0000 </r>
        <r>   35.0695    0.0000 </r>
        <r>   57.2407    0.0000 </r>
        <r>   64.0591    0.0000 </r>
        <r>   64.9687    0.0000 </r>
        <r>  106.6353    0.0000 </r>
        <r>  109.4312    0.0000 </r>
        <r>  131.4712    0.0000 </r>
       </set>
       <set comment="kpoint 9">
        <r>  -10.5040    1.0000 </r>
        <r>   32.1724    0.0000 </r>
        <r>   57.8113    0.0000 </r>
        <r>   66.4395    0.0000 </r>
        <r>   95.0434    0.0000 </r>
        <r>  102.3097    0.0000 </r>
        <r>  134.6449    0.0000 </r>
        <r>  136.4763    0.0000 </r>
       </set>
       <set comment="kpoint 10">
        <r>   -9.6887    1.0000 </r>
        <r>   29.3455    0.0000 </r>
        <r>   58.5129    0.0000 </r>
        <r>   65.6555    0.0000 </r>
        <r>   66.5199    0.0000 </r>
        <r>  102.0193    0.0000 </r>
        <r>  133.9815    0.0000 </r>
        <r>  174.5738    0.0000 </r>
       </set>
       <set comment="kpoint 11">
        <r>   -8.7832    0.0000 </r>
        <r>   26.6038    0.0000 </r>
        <r>   59.5716    0.0000 </r>
        <r>   67.3198    0.0000 </r>
        <r>   67.2400    0.0000 </r>
        <r>   98.3200    0.0000 </r>
        <r>  131.4977    0.0000 </r>
        <r>  174.6904    0.0000 </r>
       </set>
       <set comment="kpoint 12">
        <r>   -7.7910    0.0000 </r>
        <r>   23.9587    0.0000 </r>
        <r>   60.1656    0.0000 </r>
        <r>   67.7929    0.0000 </r>
        <r>   94.6468    0.0000 </r>
        <r>   99.3538    0.0000 </r>
        <r>  139.6807    0.0000 </r>
        <r>  173.2798    0.0000 </r>
       </set>
       <set comment="kpoint 13">
        <r>   -6.7172    0.0000 </r>
        <r>   21.4200    0.0000 </r>
        <r>   61.1056    0.0000 </r>
        <r>   69.5683    0.0000 </r>
        <r>   94.3686    0.0000 </r>
        <r>   96.7865    0.0000 </r>
        <r>  134.1640    0.0000 </r>
        <r>  167.9993    0.0000 </r>
       </set>
       <set comment="kpoint 14">
        <r>   -5.5776    0.0000 </r>
        <r>   18.9898    0.0000 </r>
        <r>   62.0591    0.0000 </r>
        <r>   71.2834    0.0000 </r>
        <r>   92.6193    0.0000 </r>
        <r>  119.7655    0.0000 </r>
        <r>  139.6617    0.0000 </r>
        <r>  163.4123    0.0000 </r>
       </set>
       <set comment="kpoint 15">
        <r>   -4.3714    0.0000 </r>
        <r>   16.7034    0.0000 </r>
        <r>   63.0701    0.0000 </r>
        <r>   72.5986    0.0000 </r>
        <r>   97.4209    0.0000 </r>
        <r>  135.5258    0.0000 </r>
        <r>  143.2223    0.0000 </r>
        <r>  150.3042    0.0000 </r>
       </set>
       <set comment="kpoint 16">
        <r>   -3.1294    0.0000 </r>
        <r>   14.5762    0.0000 </r>
        <r>   64.0680    0.0000 </r>
        <r>   73.5871    0.0000 </r>
        <r>   86.8979    0.0000 </r>
        <r>   89.1420    0.0000 </r>
        <r>  145.2248    0.0000 </r>
        <r>  162.3311    0.0000 </r>
       </set>
       <set comment="kpoint 17">
        <r>   -1.8964    0.0000 </r>
        <r>   12.6540    0.0000 </r>
        <r>   65.0060    0.0000 </r>
        <r>   75.1069    0.0000 </r>
        <r>   86.7096    0.0000 </r>
        <r>  143.7160    0.0000 </r>
        <r>  144.0216    0.0000 </r>
        <r>  157.1737    0.0000 </r>
       </set>
       <set comment="kpoint 18">
        <r>   -0.7710    0.0000 </r>
        <r>   11.0139    0.0000 </r>
        <r>   65.7620    0.0000 </r>
        <r>   76.1211    0.0000 </r>
        <r>   82.8193    0.0000 </r>
        <r>  140.7164    0.0000 </r>
        <r>  149.8598    0.0000 </r>
        <r>  156.9731    0.0000 </r>
       </set>
       <set comment="kpoint 19">
        <r>    0.0931    0.0000 </r>
        <r>    9.8537    0.0000 </r>
        <r>   66.3017    0.0000 </r>
        <r>   77.2193    0.0000 </r>
        <r>   83.4038    0.0000 </r>
        <r>   83.9358    0.0000 </r>
        <r>  150.7584    0.0000 </r>
        <r>  155.5674    0.0000 </r>
       </set>
       <set comment="kpoint 20">
        <r>    0.4316    0.0000 </r>
        <r>    9.4165    0.0000 </r>
        <r>   66.4935    0.0000 </r>
        <r>   82.4027    0.0000 </r>
        <r>   82.2511    0.0000 </r>
        <r>  148.5454    0.0000 </r>
        <r>  152.2562    0.0000 </r>
        <r>  153.7988    0.0000 </r>
       </set>
      </set>
     </set>
    </array>
   </eigenvalues>
   <array>
    <dimension dim="1">ion</dimension>
    <dimension dim="2">band</dimension>
    <dimension dim="3">kpoint</dimension>
    <dimension dim="4">spin</dimension>
    <field>  s</field>
    <set>
     <set comment="spin1">
      <set comment="kpoint 1">
       <set comment="band 1">
        <r>  0.4117 </r>
       </set>
       <set comment="band 2">
        <r>  0.4932 </r>
       </set>
       <set comment="band 3">
        <r>  0.0000 </r>
       </set>
       <set comment="band 4">
        <r>  0.0000 </r>
       </set>
       <set comment="band 5">
        <r>  0.0000 </r>
       </set>
       <set comment="band 6">
        <r>  0.2952 </r>
       </set>
       <set comment="band 7">
        <r>  0.0000 </r>
       </set>
       <set comment="band 8">
        <r>  0.0000 </r>
       </set>
      </set>
      <set comment="kpoint 2">
       <set comment="band 1">
        <r>  0.4116 </r>
       </set>
       <set comment="band 2">
        <r>  0.4761 </r>
       </set>
       <set comment="band 3">
        <r>  0.0145 </r>
       </set>
       <set comment="band 4">
        <r>  0.0000 </r>
       </set>
       <set comment="band 5">
        <r>  0.0001 </r>
       </set>
       <set comment="band 6">
        <r>  0.2811 </r>
       </set>
       <set comment="band 7">
        <r>  0.0004 </r>
       </set>
       <set comment="band 8">
        <r>  0.0017 </r>
       </set>
      </set>
      <set comment="kpoint 3">
       <set comment="band 1">
        <r>  0.4114 </r>
       </set>
       <set comment="band 2">
        <r>  0.4196 </r>
       </set>
       <set comment="band 3">
        <r>  0.0637 </r>
       </set>
       <set comment="band 4">
        <r>  0.0000 </r>
       </set>
       <set comment="band 5">
        <r>  0.2384 </r>
       </set>
       <set comment="band 6">
        <r>  0.0027 </r>
       </set>
       <set comment="band 7">
        <r>  0.0031 </r>
       </set>
       <set comment="band 8">
        <r>  0.0104 </r>
       </set>
      </set>
      <set comment="kpoint 4">
       <set comment="band 1">
        <r>  0.4110 </r>
       </set>
       <set comment="band 2">
        <r>  0.3427 </r>
       </set>
       <set comment="band 3">
        <r>  0.1337 </r>
       </set>
       <set comment="band 4">
        <r>  0.0000 </r>
       </set>
       <set comment="band 5">
        <r>  0.0181 </r>
       </set>
       <set comment="band 6">
        <r>  0.1919 </r>
       </set>
       <set comment="band 7">
        <r>  0.0208 </r>
       </set>
       <set comment="band 8">
        <r>  0.0226 </r>
       </set>
      </set>
      <set comment="kpoint 5">
       <set comment="band 1">
        <r>  0.4106 </r>
       </set>
       <set comment="band 2">
        <r>  0.2806 </r>
       </set>
       <set comment="band 3">
        <r>  0.1942 </r>
       </set>
       <set comment="band 4">
        <r>  0.0000 </r>
       </set>
       <set comment="band 5">
        <r>  0.0001 </r>
       </set>
       <set comment="band 6">
        <r>  0.0230 </r>
       </set>
       <set comment="band 7">
        <r>  0.1613 </r>
       </set>
       <set comment="band 8">
        <r>  0.0079 </r>
       </set>
      </set>
      <set comment="kpoint 6">
       <set comment="band 1">
        <r>  0.4103 </r>
       </set>
       <set comment="band 2">
        <r>  0.2392 </r>
       </set>
       <set comment="band 3">
        <r>  0.2307 </r>
       </set>
       <set comment="band 4">
        <r>  0.0000 </r>
       </set>
       <set comment="band 5">
        <r>  0.0004 </r>
       </set>
       <set comment="band 6">
        <r>  0.1516 </r>
       </set>
       <set comment="band 7">
        <r>  0.0068 </r>
       </set>
       <set comment="band 8">
        <r>  0.0382 </r>
       </set>
      </set>
      <set comment="kpoint 7">
       <set comment="band 1">
        <r>  0.4095 </r>
       </set>
       <set comment="band 2">
        <r>  0.2147 </r>
       </set>
       <set comment="band 3">
        <r>  0.2542 </r>
       </set>
       <set comment="band 4">
        <r>  0.0000 </r>
       </set>
       <set comment="band 5">
        <r>  0.0002 </r>
       </set>
       <set comment="band 6">
        <r>  0.0378 </r>
       </set>
       <set comment="band 7">
        <r>  0.0234 </r>
       </set>
       <set comment="band 8">
        <r>  0.0023 </r>
       </set>
      </set>
      <set comment="kpoint 8">
       <set comment="band 1">
        <r>  0.4093 </r>
       </set>
       <set comment="band 2">
        <r>  0.1974 </r>
       </set>
       <set comment="band 3">
        <r>  0.2734 </r>
       </set>
       <set comment="band 4">
        <r>  0.0000 </r>
       </set>
       <set comment="band 5">
        <r>  0.0001 </r>
       </set>
       <set comment="band 6">
        <r>  0.0773 </r>
       </set>
       <set comment="band 7">
        <r>  0.0158 </r>
       </set>
       <set comment="band 8">
        <r>  0.0248 </r>
       </set>
      </set>
      <set comment="kpoint 9">
       <set comment="band 1">
        <r>  0.4094 </r>
       </set>
       <set comment="band 2">
        <r>  0.1862 </r>
       </set>
       <set comment="band 3">
        <r>  0.2861 </r>
       </set>
       <set comment="band 4">
        <r>  0.0002 </r>
       </set>
       <set comment="band 5">
        <r>  0.0383 </r>
       </set>
       <set comment="band 6">
        <r>  0.1082 </r>
       </set>
       <set comment="band 7">
        <r>  0.0529 </r>
       </set>
       <set comment="band 8">
        <r>  0.0174 </r>
       </set>
      </set>
      <set comment="kpoint 10">
       <set comment="band 1">
        <r>  0.4100 </r>
       </set>
       <set comment="band 2">
        <r>  0.1781 </r>
       </set>
       <set comment="band 3">
        <r>  0.2957 </r>
       </set>
       <set comment="band 4">
        <r>  0.0000 </r>
       </set>
       <set comment="band 5">
        <r>  0.0001 </r>
       </set>
       <set comment="band 6">
        <r>  0.0015 </r>
       </set>
       <set comment="band 7">
        <r>  0.0727 </r>
       </set>
       <set comment="band 8">
        <r>  0.0183 </r>
       </set>
      </set>
      <set comment="kpoint 11">
       <set comment="band 1">
        <r>  0.4114 </r>
       </set>
       <set comment="band 2">
        <r>  0.1718 </r>
       </set>
       <set comment="band 3">
        <r>  0.2907 </r>
       </set>
       <set comment="band 4">
        <r>  0.0002 </r>
       </set>
       <set comment="band 5">
        <r>  0.0012 </r>
       </set>
       <set comment="band 6">
        <r>  0.0693 </r>
       </set>
       <set comment="band 7">
        <r>  0.0308 </r>
       </set>
       <set comment="band 8">
        <r>  0.0392 </r>
       </set>
      </set>
      <set comment="kpoint 12">
       <set comment="band 1">
        <r>  0.4140 </r>
       </set>
       <set comment="band 2">
        <r>  0.1647 </r>
       </set>
       <set comment="band 3">
        <r>  0.3140 </r>
       </set>
       <set comment="band 4">
        <r>  0.0000 </r>
       </set>
       <set comment="band 5">
        <r>  0.0963 </r>
       </set>
       <set comment="band 6">
        <r>  0.0001 </r>
       </set>
       <set comment="band 7">
        <r>  0.0277 </r>
       </set>
       <set comment="band 8">
        <r>  0.0793 </r>
       </set>
      </set>
      <set comment="kpoint 13">
       <set comment="band 1">
        <r>  0.4183 </r>
       </set>
       <set comment="band 2">
        <r>  0.1577 </r>
       </set>
       <set comment="band 3">
        <r>  0.3226 </r>
       </set>
       <set comment="band 4">
        <r>  0.0000 </r>
       </set>
       <set comment="band 5">
        <r>  0.0435 </r>
       </set>
       <set comment="band 6">
        <r>  0.0003 </r>
       </set>
       <set comment="band 7">
        <r>  0.0373 </r>
       </set>
       <set comment="band 8">
        <r>  0.0620 </r>
       </set>
      </set>
      <set comment="kpoint 14">
       <set comment="band 1">
        <r>  0.4248 </r>
       </set>
       <set comment="band 2">
        <r>  0.1487 </r>
       </set>
       <set comment="band 3">
        <r>  0.3337 </r>
       </set>
       <set comment="band 4">
        <r>  0.0000 </r>
       </set>
       <set comment="band 5">
        <r>  0.0266 </r>
       </set>
       <set comment="band 6">
        <r>  0.0306 </r>
       </set>
       <set comment="band 7">
        <r>  0.1105 </r>
       </set>
       <set comment="band 8">
        <r>  0.0588 </r>
       </set>
      </set>
      <set comment="kpoint 15">
       <set comment="band 1">
        <r>  0.4354 </r>
       </set>
       <set comment="band 2">
        <r>  0.1366 </r>
       </set>
       <set comment="band 3">
        <r>  0.3458 </r>
       </set>
       <set comment="band 4">
        <r>  0.0000 </r>
       </set>
       <set comment="band 5">
        <r>  0.0386 </r>
       </set>
       <set comment="band 6">
        <r>  0.0271 </r>
       </set>
       <set comment="band 7">
        <r>  0.0621 </r>
       </set>
       <set comment="band 8">
        <r>  0.0291 </r>
       </set>
      </set>
      <set comment="kpoint 16">
       <set comment="band 1">
        <r>  0.4516 </r>
       </set>
       <set comment="band 2">
        <r>  0.1194 </r>
       </set>
       <set comment="band 3">
        <r>  0.3618 </r>
       </set>
       <set comment="band 4">
        <r>  0.0000 </r>
       </set>
       <set comment="band 5">
        <r>  0.0374 </r>
       </set>
       <set comment="band 6">
        <r>  0.0000 </r>
       </set>
       <set comment="band 7">
        <r>  0.0689 </r>
       </set>
       <set comment="band 8">
        <r>  0.0015 </r>
       </set>
      </set>
      <set comment="kpoint 17">
       <set comment="band 1">
        <r>  0.4758 </r>
       </set>
       <set comment="band 2">
        <r>  0.0944 </r>
       </set>
       <set comment="band 3">
        <r>  0.3789 </r>
       </set>
       <set comment="band 4">
        <r>  0.0000 </r>
       </set>
       <set comment="band 5">
        <r>  0.0081 </r>
       </set>
       <set comment="band 6">
        <r>  0.0321 </r>
       </set>
       <set comment="band 7">
        <r>  0.0944 </r>
       </set>
       <set comment="band 8">
        <r>  0.0132 </r>
       </set>
      </set>
      <set comment="kpoint 18">
       <set comment="band 1">
        <r>  0.5097 </r>
       </set>
       <set comment="band 2">
        <r>  0.0594 </r>
       </set>
       <set comment="band 3">
        <r>  0.3994 </r>
       </set>
       <set comment="band 4">
        <r>  0.0001 </r>
       </set>
       <set comment="band 5">
        <r>  0.0088 </r>
       </set>
       <set comment="band 6">
        <r>  0.1702 </r>
       </set>
       <set comment="band 7">
        <r>  0.0207 </r>
       </set>
       <set comment="band 8">
        <r>  0.0177 </r>
       </set>
      </set>
      <set comment="kpoint 19">
       <set comment="band 1">
        <r>  0.5487 </r>
       </set>
       <set comment="band 2">
        <r>  0.0201 </r>
       </set>
       <set comment="band 3">
        <r>  0.4146 </r>
       </set>
       <set comment="band 4">
        <r>  0.0001 </r>
       </set>
       <set comment="band 5">
        <r>  0.0000 </r>
       </set>
       <set comment="band 6">
        <r>  0.0002 </r>
       </set>
       <set comment="band 7">
        <r>  0.0176 </r>
       </set>
       <set comment="band 8">
        <r>  0.0496 </r>
       </set>
      </set>
      <set comment="kpoint 20">
       <set comment="band 1">
        <r>  0.5687 </r>
       </set>
       <set comment="band 2">
        <r>  0.0000 </r>
       </set>
       <set comment="band 3">
        <r>  0.4206 </r>
       </set>
       <set comment="band 4">
        <r>  0.0000 </r>
       </set>
       <set comment="band 5">
        <r>  0.0000 </r>
       </set>
       <set comment="band 6">
        <r>  0.1313 </r>
       </set>
       <set comment="band 7">
        <r>  0.0029 </r>
       </set>
       <set comment="band 8">
        <r>  0.0002 </r>
       </set>
      </set>
     </set>
    </set>
   </array>
  </projected>
 </calculation>
 <structure name="finalpos" >
  <crystal>
   <varray name="basis" >
    <v>       1.43536055       0.00000000       0.00000000 </v>
    <v>       0.00000000       1.43536055       0.00000000 </v>
    <v>       0.00000000       0.00000000       1.43536055 </v>
   </varray>
   <i name="volume">      2.95721580 </i>
   <varray name="rec_basis" >
    <v>       0.69668907       0.00000000       0.00000000 </v>
    <v>       0.00000000       0.69668907       0.00000000 </v>
    <v>       0.00000000       0.00000000       0.69668907 </v>
   </varray>
  </crystal>
  <varray name="positions" >
   <v>       0.00000000       0.00000000       0.00000000 </v>
  </varray>
 </structure>
</modeling>
