       N       E                     dE             d eps       ncg     rms          rms(c)
DAV:   1    -0.227585674346E+01   -0.22759E+01   -0.13399E+02  2840   0.631E+01
DAV:   2    -0.228484936095E+01   -0.89926E-02   -0.89133E-02  2840   0.261E+00
DAV:   3    -0.228485006452E+01   -0.70357E-06   -0.70360E-06  2588   0.188E-02
DAV:   4    -0.228485006442E+01    0.96442E-10   -0.50167E-11  2584   0.398E-05
DAV:   5    -0.228485006440E+01    0.23981E-10    0.81167E-15  1776   0.219E-07    0.276E-01
DAV:   6    -0.232953161248E+01   -0.44682E-01   -0.10728E-04  2592   0.965E-02    0.172E-01
DAV:   7    -0.228725699734E+01    0.42275E-01    0.50796E-02  2616   0.184E-01    0.578E-03
DAV:   8    -0.228725675148E+01    0.24586E-06   -0.56393E-07  1460   0.710E-03
   1 F= -.22872568E+01 E0= -.22870376E+01  d E =-.228726E+01
       N       E                     dE             d eps       ncg     rms          rms(c)
DAV:   1    -0.228727508420E+01   -0.18087E-04   -0.26017E-05  2304   0.383E-02    0.300E-03
DAV:   2    -0.228727525285E+01   -0.16865E-06   -0.99213E-09  1160   0.937E-04
   2 F= -.22872753E+01 E0= -.22870561E+01  d E =-.185014E-04
