 vasp.5.2.12 11Nov11 complex                                                    
  
 executed on             LinuxIFC date 2018.01.16  21:15:37
 running on   16 nodes
 distr:  one band on    4 nodes,    4 groups


--------------------------------------------------------------------------------------------------------


 INCAR:
 POTCAR:   PAW_PBE H 15Jun2001                    
 POTCAR:   PAW_PBE H 15Jun2001                    
   VRHFIN =H: ultrasoft test                                                    
   LEXCH  = PE                                                                  
   EATOM  =    12.4884 eV,     .9179 Ry                                         
                                                                                
   TITEL  = PAW_PBE H 15Jun2001                                                 
   LULTRA =        F    use ultrasoft PP ?                                      
   IUNSCR =        0    unscreen: 0-lin 1-nonlin 2-no                           
   RPACOR =     .000    partial core radius                                     
   POMASS =    1.000; ZVAL   =    1.000    mass and valenz                      
   RCORE  =    1.100    outmost cutoff radius                                   
   RWIGS  =     .700; RWIGS  =     .370    wigner-seitz radius (au A)           
   ENMAX  =  250.000; ENMIN  =  200.000 eV                                      
   RCLOC  =     .701    cutoff for local pot                                    
   LCOR   =        T    correct aug charges                                     
   LPAW   =        T    paw PP                                                  
   EAUG   =  400.000                                                            
   RMAX   =    2.174    core radius for proj-oper                               
   RAUG   =    1.200    factor for augmentation sphere                          
   RDEP   =    1.112    radius for radial grids                                 
   QCUT   =   -5.749; QGAM   =   11.498    optimization parameters              
                                                                                
   Description                                                                  
     l     E      TYP  RCUT    TYP  RCUT                                        
     0   .000     23  1.100                                                     
     0   .500     23  1.100                                                     
     1  -.300     23  1.100                                                     
  local pseudopotential read in
  atomic valenz-charges read in
  non local Contribution for L=           0  read in
    real space projection operators read in
  non local Contribution for L=           0  read in
    real space projection operators read in
  non local Contribution for L=           1  read in
    real space projection operators read in
    PAW grid and wavefunctions read in
 
   number of l-projection  operators is LMAX  =           3
   number of lm-projection operators is LMMAX =           5
 

 ----------------------------------------------------------------------------- 
|                                                                             |
|  ADVICE TO THIS USER RUNNING 'VASP/VAMP'   (HEAR YOUR MASTER'S VOICE ...):  |
|                                                                             |
|      You have a (more or less) 'small supercell' and for smaller cells      |
|      it is recommended  to use the reciprocal-space projection scheme!      |
|      The real space optimization is not  efficient for small cells and it   |
|      is also less accurate ...                                              |
|      Therefore set LREAL=.FALSE. in the  INCAR file                         |
|                                                                             |
 ----------------------------------------------------------------------------- 

 Optimization of the real space projectors (new method)

 maximal supplied QI-value         = 34.20
 optimisation between [QCUT,QGAM] = [  9.24, 18.47] = [ 23.88, 95.53] Ry 
 Optimized for a Real-space Cutoff    1.53 Angstroem

   l    n(q)    QCUT    max X(q) W(low)/X(q) W(high)/X(q)  e(spline) 
   0      8     9.235     4.436    0.24E-04    0.90E-05    0.12E-06
   0      8     9.235    16.131    0.15E-03    0.21E-03    0.56E-06
   1      8     9.235     4.623    0.42E-03    0.10E-02    0.60E-06
 PAW_PBE H 15Jun2001                    :
 energy of atom  1       EATOM=  -12.4884
 kinetic energy error for atom=    0.0294 (will be added to EATOM!!)
 
 
 POSCAR: Cs2 Na1 Sb1 Cl6                         
  positions in direct lattice
  No initial velocities read in
 exchange correlation table for  LEXCH =        8
   RHO(1)=    0.500       N(1)  =     2000
   RHO(2)=  100.500       N(2)  =     4000
 


--------------------------------------------------------------------------------------------------------


 ion  position               nearest neighbor table
   1  0.000  0.000  0.000-
 
  LATTYP: Found a simple cubic cell.
 ALAT       =     1.4362858791
  
  Lattice vectors:
  
 A1 = (   1.4362858791,   0.0000000000,   0.0000000000)
 A2 = (   0.0000000000,   1.4362858791,   0.0000000000)
 A3 = (   0.0000000000,   0.0000000000,   1.4362858791)
 Subroutine PRICEL returns:
 Original cell was already a primitive cell.
 

Analysis of symmetry for initial positions (statically):

 Routine SETGRP: Setting up the symmetry group for a 
 simple cubic supercell.


 Subroutine GETGRP returns: Found 48 space group operations
 (whereof 48 operations were pure point group operations)
 out of a pool of 48 trial point group operations.


The static configuration has the point symmetry O_h .

Analysis of symmetry for dynamics (positions and initial velocities):

 Subroutine DYNSYM returns: Found 48 space group operations
 (whereof 48 operations were pure point group operations)
 out of a pool of 48 trial space group operations
 (whereof 48 operations were pure point group operations)
 and found also     1 'primitive' translations


The dynamic configuration has the point symmetry O_h .
 
 

Automatic generation of k-mesh.
 generate k-points for:   20   20   20
 
 Subroutine IBZKPT returns following result:
 ===========================================
 
 Found    286 irreducible k-points:
 
 Following reciprocal coordinates:
            Coordinates               Weight
  0.000000  0.000000  0.000000      1.000000
  0.050000  0.000000  0.000000      6.000000
  0.100000  0.000000  0.000000      6.000000
  0.150000  0.000000  0.000000      6.000000
  0.200000  0.000000  0.000000      6.000000
  0.250000  0.000000  0.000000      6.000000
  0.300000  0.000000  0.000000      6.000000
  0.350000  0.000000  0.000000      6.000000
  0.400000  0.000000  0.000000      6.000000
  0.450000  0.000000  0.000000      6.000000
  0.500000  0.000000  0.000000      3.000000
  0.050000  0.050000  0.000000     12.000000
  0.100000  0.050000  0.000000     24.000000
  0.150000  0.050000  0.000000     24.000000
  0.200000  0.050000  0.000000     24.000000
  0.250000  0.050000  0.000000     24.000000
  0.300000  0.050000  0.000000     24.000000
  0.350000  0.050000  0.000000     24.000000
  0.400000  0.050000  0.000000     24.000000
  0.450000  0.050000  0.000000     24.000000
  0.500000  0.050000  0.000000     12.000000
  0.100000  0.100000  0.000000     12.000000
  0.150000  0.100000  0.000000     24.000000
  0.200000  0.100000  0.000000     24.000000
  0.250000  0.100000  0.000000     24.000000
  0.300000  0.100000  0.000000     24.000000
  0.350000  0.100000  0.000000     24.000000
  0.400000  0.100000  0.000000     24.000000
  0.450000  0.100000  0.000000     24.000000
  0.500000  0.100000  0.000000     12.000000
  0.150000  0.150000  0.000000     12.000000
  0.200000  0.150000  0.000000     24.000000
  0.250000  0.150000  0.000000     24.000000
  0.300000  0.150000  0.000000     24.000000
  0.350000  0.150000  0.000000     24.000000
  0.400000  0.150000  0.000000     24.000000
  0.450000  0.150000  0.000000     24.000000
  0.500000  0.150000  0.000000     12.000000
  0.200000  0.200000  0.000000     12.000000
  0.250000  0.200000  0.000000     24.000000
  0.300000  0.200000  0.000000     24.000000
  0.350000  0.200000  0.000000     24.000000
  0.400000  0.200000  0.000000     24.000000
  0.450000  0.200000  0.000000     24.000000
  0.500000  0.200000  0.000000     12.000000
  0.250000  0.250000  0.000000     12.000000
  0.300000  0.250000  0.000000     24.000000
  0.350000  0.250000  0.000000     24.000000
  0.400000  0.250000  0.000000     24.000000
  0.450000  0.250000  0.000000     24.000000
  0.500000  0.250000  0.000000     12.000000
  0.300000  0.300000  0.000000     12.000000
  0.350000  0.300000  0.000000     24.000000
  0.400000  0.300000  0.000000     24.000000
  0.450000  0.300000  0.000000     24.000000
  0.500000  0.300000  0.000000     12.000000
  0.350000  0.350000  0.000000     12.000000
  0.400000  0.350000  0.000000     24.000000
  0.450000  0.350000  0.000000     24.000000
  0.500000  0.350000  0.000000     12.000000
  0.400000  0.400000  0.000000     12.000000
  0.450000  0.400000  0.000000     24.000000
  0.500000  0.400000  0.000000     12.000000
  0.450000  0.450000  0.000000     12.000000
  0.500000  0.450000  0.000000     12.000000
  0.500000  0.500000  0.000000      3.000000
  0.050000  0.050000  0.050000      8.000000
  0.100000  0.050000  0.050000     24.000000
  0.150000  0.050000  0.050000     24.000000
  0.200000  0.050000  0.050000     24.000000
  0.250000  0.050000  0.050000     24.000000
  0.300000  0.050000  0.050000     24.000000
  0.350000  0.050000  0.050000     24.000000
  0.400000  0.050000  0.050000     24.000000
  0.450000  0.050000  0.050000     24.000000
  0.500000  0.050000  0.050000     12.000000
  0.100000  0.100000  0.050000     24.000000
  0.150000  0.100000  0.050000     48.000000
  0.200000  0.100000  0.050000     48.000000
  0.250000  0.100000  0.050000     48.000000
  0.300000  0.100000  0.050000     48.000000
  0.350000  0.100000  0.050000     48.000000
  0.400000  0.100000  0.050000     48.000000
  0.450000  0.100000  0.050000     48.000000
  0.500000  0.100000  0.050000     24.000000
  0.150000  0.150000  0.050000     24.000000
  0.200000  0.150000  0.050000     48.000000
  0.250000  0.150000  0.050000     48.000000
  0.300000  0.150000  0.050000     48.000000
  0.350000  0.150000  0.050000     48.000000
  0.400000  0.150000  0.050000     48.000000
  0.450000  0.150000  0.050000     48.000000
  0.500000  0.150000  0.050000     24.000000
  0.200000  0.200000  0.050000     24.000000
  0.250000  0.200000  0.050000     48.000000
  0.300000  0.200000  0.050000     48.000000
  0.350000  0.200000  0.050000     48.000000
  0.400000  0.200000  0.050000     48.000000
  0.450000  0.200000  0.050000     48.000000
  0.500000  0.200000  0.050000     24.000000
  0.250000  0.250000  0.050000     24.000000
  0.300000  0.250000  0.050000     48.000000
  0.350000  0.250000  0.050000     48.000000
  0.400000  0.250000  0.050000     48.000000
  0.450000  0.250000  0.050000     48.000000
  0.500000  0.250000  0.050000     24.000000
  0.300000  0.300000  0.050000     24.000000
  0.350000  0.300000  0.050000     48.000000
  0.400000  0.300000  0.050000     48.000000
  0.450000  0.300000  0.050000     48.000000
  0.500000  0.300000  0.050000     24.000000
  0.350000  0.350000  0.050000     24.000000
  0.400000  0.350000  0.050000     48.000000
  0.450000  0.350000  0.050000     48.000000
  0.500000  0.350000  0.050000     24.000000
  0.400000  0.400000  0.050000     24.000000
  0.450000  0.400000  0.050000     48.000000
  0.500000  0.400000  0.050000     24.000000
  0.450000  0.450000  0.050000     24.000000
  0.500000  0.450000  0.050000     24.000000
  0.500000  0.500000  0.050000      6.000000
  0.100000  0.100000  0.100000      8.000000
  0.150000  0.100000  0.100000     24.000000
  0.200000  0.100000  0.100000     24.000000
  0.250000  0.100000  0.100000     24.000000
  0.300000  0.100000  0.100000     24.000000
  0.350000  0.100000  0.100000     24.000000
  0.400000  0.100000  0.100000     24.000000
  0.450000  0.100000  0.100000     24.000000
  0.500000  0.100000  0.100000     12.000000
  0.150000  0.150000  0.100000     24.000000
  0.200000  0.150000  0.100000     48.000000
  0.250000  0.150000  0.100000     48.000000
  0.300000  0.150000  0.100000     48.000000
  0.350000  0.150000  0.100000     48.000000
  0.400000  0.150000  0.100000     48.000000
  0.450000  0.150000  0.100000     48.000000
  0.500000  0.150000  0.100000     24.000000
  0.200000  0.200000  0.100000     24.000000
  0.250000  0.200000  0.100000     48.000000
  0.300000  0.200000  0.100000     48.000000
  0.350000  0.200000  0.100000     48.000000
  0.400000  0.200000  0.100000     48.000000
  0.450000  0.200000  0.100000     48.000000
  0.500000  0.200000  0.100000     24.000000
  0.250000  0.250000  0.100000     24.000000
  0.300000  0.250000  0.100000     48.000000
  0.350000  0.250000  0.100000     48.000000
  0.400000  0.250000  0.100000     48.000000
  0.450000  0.250000  0.100000     48.000000
  0.500000  0.250000  0.100000     24.000000
  0.300000  0.300000  0.100000     24.000000
  0.350000  0.300000  0.100000     48.000000
  0.400000  0.300000  0.100000     48.000000
  0.450000  0.300000  0.100000     48.000000
  0.500000  0.300000  0.100000     24.000000
  0.350000  0.350000  0.100000     24.000000
  0.400000  0.350000  0.100000     48.000000
  0.450000  0.350000  0.100000     48.000000
  0.500000  0.350000  0.100000     24.000000
  0.400000  0.400000  0.100000     24.000000
  0.450000  0.400000  0.100000     48.000000
  0.500000  0.400000  0.100000     24.000000
  0.450000  0.450000  0.100000     24.000000
  0.500000  0.450000  0.100000     24.000000
  0.500000  0.500000  0.100000      6.000000
  0.150000  0.150000  0.150000      8.000000
  0.200000  0.150000  0.150000     24.000000
  0.250000  0.150000  0.150000     24.000000
  0.300000  0.150000  0.150000     24.000000
  0.350000  0.150000  0.150000     24.000000
  0.400000  0.150000  0.150000     24.000000
  0.450000  0.150000  0.150000     24.000000
  0.500000  0.150000  0.150000     12.000000
  0.200000  0.200000  0.150000     24.000000
  0.250000  0.200000  0.150000     48.000000
  0.300000  0.200000  0.150000     48.000000
  0.350000  0.200000  0.150000     48.000000
  0.400000  0.200000  0.150000     48.000000
  0.450000  0.200000  0.150000     48.000000
  0.500000  0.200000  0.150000     24.000000
  0.250000  0.250000  0.150000     24.000000
  0.300000  0.250000  0.150000     48.000000
  0.350000  0.250000  0.150000     48.000000
  0.400000  0.250000  0.150000     48.000000
  0.450000  0.250000  0.150000     48.000000
  0.500000  0.250000  0.150000     24.000000
  0.300000  0.300000  0.150000     24.000000
  0.350000  0.300000  0.150000     48.000000
  0.400000  0.300000  0.150000     48.000000
  0.450000  0.300000  0.150000     48.000000
  0.500000  0.300000  0.150000     24.000000
  0.350000  0.350000  0.150000     24.000000
  0.400000  0.350000  0.150000     48.000000
  0.450000  0.350000  0.150000     48.000000
  0.500000  0.350000  0.150000     24.000000
  0.400000  0.400000  0.150000     24.000000
  0.450000  0.400000  0.150000     48.000000
  0.500000  0.400000  0.150000     24.000000
  0.450000  0.450000  0.150000     24.000000
  0.500000  0.450000  0.150000     24.000000
  0.500000  0.500000  0.150000      6.000000
  0.200000  0.200000  0.200000      8.000000
  0.250000  0.200000  0.200000     24.000000
  0.300000  0.200000  0.200000     24.000000
  0.350000  0.200000  0.200000     24.000000
  0.400000  0.200000  0.200000     24.000000
  0.450000  0.200000  0.200000     24.000000
  0.500000  0.200000  0.200000     12.000000
  0.250000  0.250000  0.200000     24.000000
  0.300000  0.250000  0.200000     48.000000
  0.350000  0.250000  0.200000     48.000000
  0.400000  0.250000  0.200000     48.000000
  0.450000  0.250000  0.200000     48.000000
  0.500000  0.250000  0.200000     24.000000
  0.300000  0.300000  0.200000     24.000000
  0.350000  0.300000  0.200000     48.000000
  0.400000  0.300000  0.200000     48.000000
  0.450000  0.300000  0.200000     48.000000
  0.500000  0.300000  0.200000     24.000000
  0.350000  0.350000  0.200000     24.000000
  0.400000  0.350000  0.200000     48.000000
  0.450000  0.350000  0.200000     48.000000
  0.500000  0.350000  0.200000     24.000000
  0.400000  0.400000  0.200000     24.000000
  0.450000  0.400000  0.200000     48.000000
  0.500000  0.400000  0.200000     24.000000
  0.450000  0.450000  0.200000     24.000000
  0.500000  0.450000  0.200000     24.000000
  0.500000  0.500000  0.200000      6.000000
  0.250000  0.250000  0.250000      8.000000
  0.300000  0.250000  0.250000     24.000000
  0.350000  0.250000  0.250000     24.000000
  0.400000  0.250000  0.250000     24.000000
  0.450000  0.250000  0.250000     24.000000
  0.500000  0.250000  0.250000     12.000000
  0.300000  0.300000  0.250000     24.000000
  0.350000  0.300000  0.250000     48.000000
  0.400000  0.300000  0.250000     48.000000
  0.450000  0.300000  0.250000     48.000000
  0.500000  0.300000  0.250000     24.000000
  0.350000  0.350000  0.250000     24.000000
  0.400000  0.350000  0.250000     48.000000
  0.450000  0.350000  0.250000     48.000000
  0.500000  0.350000  0.250000     24.000000
  0.400000  0.400000  0.250000     24.000000
  0.450000  0.400000  0.250000     48.000000
  0.500000  0.400000  0.250000     24.000000
  0.450000  0.450000  0.250000     24.000000
  0.500000  0.450000  0.250000     24.000000
  0.500000  0.500000  0.250000      6.000000
  0.300000  0.300000  0.300000      8.000000
  0.350000  0.300000  0.300000     24.000000
  0.400000  0.300000  0.300000     24.000000
  0.450000  0.300000  0.300000     24.000000
  0.500000  0.300000  0.300000     12.000000
  0.350000  0.350000  0.300000     24.000000
  0.400000  0.350000  0.300000     48.000000
  0.450000  0.350000  0.300000     48.000000
  0.500000  0.350000  0.300000     24.000000
  0.400000  0.400000  0.300000     24.000000
  0.450000  0.400000  0.300000     48.000000
  0.500000  0.400000  0.300000     24.000000
  0.450000  0.450000  0.300000     24.000000
  0.500000  0.450000  0.300000     24.000000
  0.500000  0.500000  0.300000      6.000000
  0.350000  0.350000  0.350000      8.000000
  0.400000  0.350000  0.350000     24.000000
  0.450000  0.350000  0.350000     24.000000
  0.500000  0.350000  0.350000     12.000000
  0.400000  0.400000  0.350000     24.000000
  0.450000  0.400000  0.350000     48.000000
  0.500000  0.400000  0.350000     24.000000
  0.450000  0.450000  0.350000     24.000000
  0.500000  0.450000  0.350000     24.000000
  0.500000  0.500000  0.350000      6.000000
  0.400000  0.400000  0.400000      8.000000
  0.450000  0.400000  0.400000     24.000000
  0.500000  0.400000  0.400000     12.000000
  0.450000  0.450000  0.400000     24.000000
  0.500000  0.450000  0.400000     24.000000
  0.500000  0.500000  0.400000      6.000000
  0.450000  0.450000  0.450000      8.000000
  0.500000  0.450000  0.450000     12.000000
  0.500000  0.500000  0.450000      6.000000
  0.500000  0.500000  0.500000      1.000000
 
 Following cartesian coordinates:
            Coordinates               Weight
  0.000000  0.000000  0.000000      1.000000
  0.034812  0.000000  0.000000      6.000000
  0.069624  0.000000  0.000000      6.000000
  0.104436  0.000000  0.000000      6.000000
  0.139248  0.000000  0.000000      6.000000
  0.174060  0.000000  0.000000      6.000000
  0.208872  0.000000  0.000000      6.000000
  0.243684  0.000000  0.000000      6.000000
  0.278496  0.000000  0.000000      6.000000
  0.313308  0.000000  0.000000      6.000000
  0.348120  0.000000  0.000000      3.000000
  0.034812  0.034812  0.000000     12.000000
  0.069624  0.034812  0.000000     24.000000
  0.104436  0.034812  0.000000     24.000000
  0.139248  0.034812  0.000000     24.000000
  0.174060  0.034812  0.000000     24.000000
  0.208872  0.034812  0.000000     24.000000
  0.243684  0.034812  0.000000     24.000000
  0.278496  0.034812  0.000000     24.000000
  0.313308  0.034812  0.000000     24.000000
  0.348120  0.034812  0.000000     12.000000
  0.069624  0.069624  0.000000     12.000000
  0.104436  0.069624  0.000000     24.000000
  0.139248  0.069624  0.000000     24.000000
  0.174060  0.069624  0.000000     24.000000
  0.208872  0.069624  0.000000     24.000000
  0.243684  0.069624  0.000000     24.000000
  0.278496  0.069624  0.000000     24.000000
  0.313308  0.069624  0.000000     24.000000
  0.348120  0.069624  0.000000     12.000000
  0.104436  0.104436  0.000000     12.000000
  0.139248  0.104436  0.000000     24.000000
  0.174060  0.104436  0.000000     24.000000
  0.208872  0.104436  0.000000     24.000000
  0.243684  0.104436  0.000000     24.000000
  0.278496  0.104436  0.000000     24.000000
  0.313308  0.104436  0.000000     24.000000
  0.348120  0.104436  0.000000     12.000000
  0.139248  0.139248  0.000000     12.000000
  0.174060  0.139248  0.000000     24.000000
  0.208872  0.139248  0.000000     24.000000
  0.243684  0.139248  0.000000     24.000000
  0.278496  0.139248  0.000000     24.000000
  0.313308  0.139248  0.000000     24.000000
  0.348120  0.139248  0.000000     12.000000
  0.174060  0.174060  0.000000     12.000000
  0.208872  0.174060  0.000000     24.000000
  0.243684  0.174060  0.000000     24.000000
  0.278496  0.174060  0.000000     24.000000
  0.313308  0.174060  0.000000     24.000000
  0.348120  0.174060  0.000000     12.000000
  0.208872  0.208872  0.000000     12.000000
  0.243684  0.208872  0.000000     24.000000
  0.278496  0.208872  0.000000     24.000000
  0.313308  0.208872  0.000000     24.000000
  0.348120  0.208872  0.000000     12.000000
  0.243684  0.243684  0.000000     12.000000
  0.278496  0.243684  0.000000     24.000000
  0.313308  0.243684  0.000000     24.000000
  0.348120  0.243684  0.000000     12.000000
  0.278496  0.278496  0.000000     12.000000
  0.313308  0.278496  0.000000     24.000000
  0.348120  0.278496  0.000000     12.000000
  0.313308  0.313308  0.000000     12.000000
  0.348120  0.313308  0.000000     12.000000
  0.348120  0.348120  0.000000      3.000000
  0.034812  0.034812  0.034812      8.000000
  0.069624  0.034812  0.034812     24.000000
  0.104436  0.034812  0.034812     24.000000
  0.139248  0.034812  0.034812     24.000000
  0.174060  0.034812  0.034812     24.000000
  0.208872  0.034812  0.034812     24.000000
  0.243684  0.034812  0.034812     24.000000
  0.278496  0.034812  0.034812     24.000000
  0.313308  0.034812  0.034812     24.000000
  0.348120  0.034812  0.034812     12.000000
  0.069624  0.069624  0.034812     24.000000
  0.104436  0.069624  0.034812     48.000000
  0.139248  0.069624  0.034812     48.000000
  0.174060  0.069624  0.034812     48.000000
  0.208872  0.069624  0.034812     48.000000
  0.243684  0.069624  0.034812     48.000000
  0.278496  0.069624  0.034812     48.000000
  0.313308  0.069624  0.034812     48.000000
  0.348120  0.069624  0.034812     24.000000
  0.104436  0.104436  0.034812     24.000000
  0.139248  0.104436  0.034812     48.000000
  0.174060  0.104436  0.034812     48.000000
  0.208872  0.104436  0.034812     48.000000
  0.243684  0.104436  0.034812     48.000000
  0.278496  0.104436  0.034812     48.000000
  0.313308  0.104436  0.034812     48.000000
  0.348120  0.104436  0.034812     24.000000
  0.139248  0.139248  0.034812     24.000000
  0.174060  0.139248  0.034812     48.000000
  0.208872  0.139248  0.034812     48.000000
  0.243684  0.139248  0.034812     48.000000
  0.278496  0.139248  0.034812     48.000000
  0.313308  0.139248  0.034812     48.000000
  0.348120  0.139248  0.034812     24.000000
  0.174060  0.174060  0.034812     24.000000
  0.208872  0.174060  0.034812     48.000000
  0.243684  0.174060  0.034812     48.000000
  0.278496  0.174060  0.034812     48.000000
  0.313308  0.174060  0.034812     48.000000
  0.348120  0.174060  0.034812     24.000000
  0.208872  0.208872  0.034812     24.000000
  0.243684  0.208872  0.034812     48.000000
  0.278496  0.208872  0.034812     48.000000
  0.313308  0.208872  0.034812     48.000000
  0.348120  0.208872  0.034812     24.000000
  0.243684  0.243684  0.034812     24.000000
  0.278496  0.243684  0.034812     48.000000
  0.313308  0.243684  0.034812     48.000000
  0.348120  0.243684  0.034812     24.000000
  0.278496  0.278496  0.034812     24.000000
  0.313308  0.278496  0.034812     48.000000
  0.348120  0.278496  0.034812     24.000000
  0.313308  0.313308  0.034812     24.000000
  0.348120  0.313308  0.034812     24.000000
  0.348120  0.348120  0.034812      6.000000
  0.069624  0.069624  0.069624      8.000000
  0.104436  0.069624  0.069624     24.000000
  0.139248  0.069624  0.069624     24.000000
  0.174060  0.069624  0.069624     24.000000
  0.208872  0.069624  0.069624     24.000000
  0.243684  0.069624  0.069624     24.000000
  0.278496  0.069624  0.069624     24.000000
  0.313308  0.069624  0.069624     24.000000
  0.348120  0.069624  0.069624     12.000000
  0.104436  0.104436  0.069624     24.000000
  0.139248  0.104436  0.069624     48.000000
  0.174060  0.104436  0.069624     48.000000
  0.208872  0.104436  0.069624     48.000000
  0.243684  0.104436  0.069624     48.000000
  0.278496  0.104436  0.069624     48.000000
  0.313308  0.104436  0.069624     48.000000
  0.348120  0.104436  0.069624     24.000000
  0.139248  0.139248  0.069624     24.000000
  0.174060  0.139248  0.069624     48.000000
  0.208872  0.139248  0.069624     48.000000
  0.243684  0.139248  0.069624     48.000000
  0.278496  0.139248  0.069624     48.000000
  0.313308  0.139248  0.069624     48.000000
  0.348120  0.139248  0.069624     24.000000
  0.174060  0.174060  0.069624     24.000000
  0.208872  0.174060  0.069624     48.000000
  0.243684  0.174060  0.069624     48.000000
  0.278496  0.174060  0.069624     48.000000
  0.313308  0.174060  0.069624     48.000000
  0.348120  0.174060  0.069624     24.000000
  0.208872  0.208872  0.069624     24.000000
  0.243684  0.208872  0.069624     48.000000
  0.278496  0.208872  0.069624     48.000000
  0.313308  0.208872  0.069624     48.000000
  0.348120  0.208872  0.069624     24.000000
  0.243684  0.243684  0.069624     24.000000
  0.278496  0.243684  0.069624     48.000000
  0.313308  0.243684  0.069624     48.000000
  0.348120  0.243684  0.069624     24.000000
  0.278496  0.278496  0.069624     24.000000
  0.313308  0.278496  0.069624     48.000000
  0.348120  0.278496  0.069624     24.000000
  0.313308  0.313308  0.069624     24.000000
  0.348120  0.313308  0.069624     24.000000
  0.348120  0.348120  0.069624      6.000000
  0.104436  0.104436  0.104436      8.000000
  0.139248  0.104436  0.104436     24.000000
  0.174060  0.104436  0.104436     24.000000
  0.208872  0.104436  0.104436     24.000000
  0.243684  0.104436  0.104436     24.000000
  0.278496  0.104436  0.104436     24.000000
  0.313308  0.104436  0.104436     24.000000
  0.348120  0.104436  0.104436     12.000000
  0.139248  0.139248  0.104436     24.000000
  0.174060  0.139248  0.104436     48.000000
  0.208872  0.139248  0.104436     48.000000
  0.243684  0.139248  0.104436     48.000000
  0.278496  0.139248  0.104436     48.000000
  0.313308  0.139248  0.104436     48.000000
  0.348120  0.139248  0.104436     24.000000
  0.174060  0.174060  0.104436     24.000000
  0.208872  0.174060  0.104436     48.000000
  0.243684  0.174060  0.104436     48.000000
  0.278496  0.174060  0.104436     48.000000
  0.313308  0.174060  0.104436     48.000000
  0.348120  0.174060  0.104436     24.000000
  0.208872  0.208872  0.104436     24.000000
  0.243684  0.208872  0.104436     48.000000
  0.278496  0.208872  0.104436     48.000000
  0.313308  0.208872  0.104436     48.000000
  0.348120  0.208872  0.104436     24.000000
  0.243684  0.243684  0.104436     24.000000
  0.278496  0.243684  0.104436     48.000000
  0.313308  0.243684  0.104436     48.000000
  0.348120  0.243684  0.104436     24.000000
  0.278496  0.278496  0.104436     24.000000
  0.313308  0.278496  0.104436     48.000000
  0.348120  0.278496  0.104436     24.000000
  0.313308  0.313308  0.104436     24.000000
  0.348120  0.313308  0.104436     24.000000
  0.348120  0.348120  0.104436      6.000000
  0.139248  0.139248  0.139248      8.000000
  0.174060  0.139248  0.139248     24.000000
  0.208872  0.139248  0.139248     24.000000
  0.243684  0.139248  0.139248     24.000000
  0.278496  0.139248  0.139248     24.000000
  0.313308  0.139248  0.139248     24.000000
  0.348120  0.139248  0.139248     12.000000
  0.174060  0.174060  0.139248     24.000000
  0.208872  0.174060  0.139248     48.000000
  0.243684  0.174060  0.139248     48.000000
  0.278496  0.174060  0.139248     48.000000
  0.313308  0.174060  0.139248     48.000000
  0.348120  0.174060  0.139248     24.000000
  0.208872  0.208872  0.139248     24.000000
  0.243684  0.208872  0.139248     48.000000
  0.278496  0.208872  0.139248     48.000000
  0.313308  0.208872  0.139248     48.000000
  0.348120  0.208872  0.139248     24.000000
  0.243684  0.243684  0.139248     24.000000
  0.278496  0.243684  0.139248     48.000000
  0.313308  0.243684  0.139248     48.000000
  0.348120  0.243684  0.139248     24.000000
  0.278496  0.278496  0.139248     24.000000
  0.313308  0.278496  0.139248     48.000000
  0.348120  0.278496  0.139248     24.000000
  0.313308  0.313308  0.139248     24.000000
  0.348120  0.313308  0.139248     24.000000
  0.348120  0.348120  0.139248      6.000000
  0.174060  0.174060  0.174060      8.000000
  0.208872  0.174060  0.174060     24.000000
  0.243684  0.174060  0.174060     24.000000
  0.278496  0.174060  0.174060     24.000000
  0.313308  0.174060  0.174060     24.000000
  0.348120  0.174060  0.174060     12.000000
  0.208872  0.208872  0.174060     24.000000
  0.243684  0.208872  0.174060     48.000000
  0.278496  0.208872  0.174060     48.000000
  0.313308  0.208872  0.174060     48.000000
  0.348120  0.208872  0.174060     24.000000
  0.243684  0.243684  0.174060     24.000000
  0.278496  0.243684  0.174060     48.000000
  0.313308  0.243684  0.174060     48.000000
  0.348120  0.243684  0.174060     24.000000
  0.278496  0.278496  0.174060     24.000000
  0.313308  0.278496  0.174060     48.000000
  0.348120  0.278496  0.174060     24.000000
  0.313308  0.313308  0.174060     24.000000
  0.348120  0.313308  0.174060     24.000000
  0.348120  0.348120  0.174060      6.000000
  0.208872  0.208872  0.208872      8.000000
  0.243684  0.208872  0.208872     24.000000
  0.278496  0.208872  0.208872     24.000000
  0.313308  0.208872  0.208872     24.000000
  0.348120  0.208872  0.208872     12.000000
  0.243684  0.243684  0.208872     24.000000
  0.278496  0.243684  0.208872     48.000000
  0.313308  0.243684  0.208872     48.000000
  0.348120  0.243684  0.208872     24.000000
  0.278496  0.278496  0.208872     24.000000
  0.313308  0.278496  0.208872     48.000000
  0.348120  0.278496  0.208872     24.000000
  0.313308  0.313308  0.208872     24.000000
  0.348120  0.313308  0.208872     24.000000
  0.348120  0.348120  0.208872      6.000000
  0.243684  0.243684  0.243684      8.000000
  0.278496  0.243684  0.243684     24.000000
  0.313308  0.243684  0.243684     24.000000
  0.348120  0.243684  0.243684     12.000000
  0.278496  0.278496  0.243684     24.000000
  0.313308  0.278496  0.243684     48.000000
  0.348120  0.278496  0.243684     24.000000
  0.313308  0.313308  0.243684     24.000000
  0.348120  0.313308  0.243684     24.000000
  0.348120  0.348120  0.243684      6.000000
  0.278496  0.278496  0.278496      8.000000
  0.313308  0.278496  0.278496     24.000000
  0.348120  0.278496  0.278496     12.000000
  0.313308  0.313308  0.278496     24.000000
  0.348120  0.313308  0.278496     24.000000
  0.348120  0.348120  0.278496      6.000000
  0.313308  0.313308  0.313308      8.000000
  0.348120  0.313308  0.313308     12.000000
  0.348120  0.348120  0.313308      6.000000
  0.348120  0.348120  0.348120      1.000000
 


--------------------------------------------------------------------------------------------------------




 Dimension of arrays:
   k-points           NKPTS =    286   k-points in BZ     NKDIM =    286   number of bands    NBANDS=      4
   number of dos      NEDOS =    301   number of ions     NIONS =      1
   non local maximal  LDIM  =      3   non local SUM 2l+1 LMDIM =      5
   total plane-waves  NPLWV =    216
   max r-space proj   IRMAX =   1147   max aug-charges    IRDMAX=   3034
   dimension x,y,z NGX =     6 NGY =    6 NGZ =    6
   dimension x,y,z NGXF=    12 NGYF=   12 NGZF=   12
   support grid    NGXF=    24 NGYF=   24 NGZF=   24
   ions per type =               1
 NGX,Y,Z   is equivalent  to a cutoff of   6.94,  6.94,  6.94 a.u.
 NGXF,Y,Z  is equivalent  to a cutoff of  13.89, 13.89, 13.89 a.u.


 I would recommend the setting:
   dimension x,y,z NGX =     6 NGY =    6 NGZ =    6
 SYSTEM =  jump2                                   
 POSCAR =  Cs2 Na1 Sb1 Cl6                         

 Startparameter for this run:
   NWRITE =      2    write-flag & timer
   PREC   = normal    normal or accurate (medium, high low for compatibility)
   ISTART =      0    job   : 0-new  1-cont  2-samecut
   ICHARG =      2    charge: 1-file 2-atom 10-const
   ISPIN  =      1    spin polarized calculation?
   LNONCOLLINEAR =      F non collinear calculations
   LSORBIT =      F    spin-orbit coupling
   INIWAV =      1    electr: 0-lowe 1-rand  2-diag
   LASPH  =      F    aspherical Exc in radial PAW
   METAGGA=      F    non-selfconsistent MetaGGA calc.

 Electronic Relaxation 1
   ENCUT  =  325.0 eV  23.89 Ry    4.89 a.u.   2.11  2.11  2.11*2*pi/ulx,y,z
   ENINI  =  325.0     initial cutoff
   ENAUG  =  400.0 eV  augmentation charge cutoff
   NELM   =     60;   NELMIN=  2; NELMDL= -5     # of ELM steps 
   EDIFF  = 0.1E-04   stopping-criterion for ELM
   LREAL  =      T    real-space projection
   NLSPLINE    = F    spline interpolate recip. space projectors
   LCOMPAT=      F    compatible to vasp.4.4
   GGA_COMPAT  = T    GGA compatible to vasp.4.4-vasp.4.6
   LMAXPAW     = -100 max onsite density
   LMAXMIX     =    2 max onsite mixed and CHGCAR
   VOSKOWN=      0    Vosko Wilk Nusair interpolation
   ROPT   =   -0.00050
 Ionic relaxation
   EDIFFG = -.1E-01   stopping-criterion for IOM
   NSW    =     30    number of steps for IOM
   NBLOCK =      1;   KBLOCK =     30    inner block; outer block 
   IBRION =      2    ionic relax: 0-MD 1-quasi-New 2-CG
   NFREE  =      1    steps in history (QN), initial steepest desc. (CG)
   ISIF   =      3    stress and relaxation
   IWAVPR =     11    prediction:  0-non 1-charg 2-wave 3-comb
   ISYM   =      2    0-nonsym 1-usesym 2-fastsym
   LCORR  =      T    Harris-Foulkes like correction to forces

   POTIM  = 0.5000    time-step for ionic-motion
   TEIN   =    0.0    initial temperature
   TEBEG  =    0.0;   TEEND  =   0.0 temperature during run
   SMASS  =  -3.00    Nose mass-parameter (am)
   estimated Nose-frequenzy (Omega)   =  0.10E-29 period in steps =****** mass=  -0.471E-28a.u.
   SCALEE = 1.0000    scale energy and forces
   NPACO  =    256;   APACO  = 16.0  distance and # of slots for P.C.
   PSTRESS=    0.0 pullay stress

  Mass of Ions in am
   POMASS =   1.00
  Ionic Valenz
   ZVAL   =   1.00
  Atomic Wigner-Seitz radii
   RWIGS  =  -1.00
  virtual crystal weights 
   VCA    =   1.00
   NELECT =       1.0000    total number of electrons
   NUPDOWN=      -1.0000    fix difference up-down

 DOS related values:
   EMIN   =  10.00;   EMAX   =-10.00  energy-range for DOS
   EFERMI =   0.00
   ISMEAR =     0;   SIGMA  =   0.10  broadening in eV -4-tet -1-fermi 0-gaus

 Electronic relaxation 2 (details)
   IALGO  =     38    algorithm
   LDIAG  =      T    sub-space diagonalisation (order eigenvalues)
   LSUBROT=      T    optimize rotation matrix (better conditioning)
   TURBO    =      0    0=normal 1=particle mesh
   IRESTART =      0    0=no restart 2=restart with 2 vectors
   NREBOOT  =      0    no. of reboots
   NMIN     =      0    reboot dimension
   EREF     =   0.00    reference energy to select bands
   IMIX   =      4    mixing-type and parameters
     AMIX     =   0.40;   BMIX     =  1.00
     AMIX_MAG =   1.60;   BMIX_MAG =  1.00
     AMIN     =   0.01
     WC   =   100.;   INIMIX=   1;  MIXPRE=   1

 Intra band minimization:
   WEIMIN = 0.0010     energy-eigenvalue tresh-hold
   EBREAK =  0.63E-06  absolut break condition
   DEPER  =   0.30     relativ break condition  

   TIME   =   0.40     timestep for ELM

  volume/ion in A,a.u.               =       2.96        19.99
  Fermi-wavevector in a.u.,A,eV,Ry     =   1.139814  2.153936 17.676358  1.299176
  Thomas-Fermi vector in A             =   2.276517
 
 Write flags
   LWAVE  =      F    write WAVECAR
   LCHARG =      T    write CHGCAR
   LVTOT  =      F    write LOCPOT, total local potential
   LVHAR  =      F    write LOCPOT, Hartree potential only
   LELF   =      F    write electronic localiz. function (ELF)
   LORBIT =     11    0 simple, 1 ext, 2 COOP (PROOUT)


 Dipole corrections
   LMONO  =      F    monopole corrections only (constant potential shift)
   LDIPOL =      F    correct potential (dipole corrections)
   IDIPOL =      0    1-x, 2-y, 3-z, 4-all directions 
   EPSILON=  1.0000000 bulk dielectric constant

 Exchange correlation treatment:
   GGA     =    --    GGA type
   LEXCH   =     8    internal setting for exchange type
   VOSKOWN=      0    Vosko Wilk Nusair interpolation
   LHFCALC =     F    Hartree Fock is set to
   LHFONE  =     F    Hartree Fock one center treatment
   AEXX    =    0.0000 exact exchange contribution

 Linear response parameters
   LEPSILON=     F    determine dielectric tensor
   LRPA    =     F    only Hartree local field effects (RPA)
   LNABLA  =     F    use nabla operator in PAW spheres
   LVEL    =     F    velocity operator in full k-point grid
   LINTERFAST=   F  fast interpolation
   KINTER  =     0    interpolate to denser k-point grid
   CSHIFT  =0.1000    complex shift for real part using Kramers Kronig
   OMEGAMAX=  -1.0    maximum frequency
   RTIME   =    0.100 relaxation time in fs

 Orbital magnetization related:
   ORBITALMAG=     F  switch on orbital magnetization
   LCHIMAG   =     F  perturbation theory with respect to B field
   DQ        =  0.001000  dq finite difference perturbation B field



--------------------------------------------------------------------------------------------------------


 conjugate gradient relaxation of ions
 charge density and potential will be updated during run
 non-spin polarized calculation
 Variant of blocked Davidson
 Davidson routine will perform the subspace rotation
 perform sub-space diagonalisation
    after iterative eigenvector-optimisation
 modified Broyden-mixing scheme, WC =      100.0
 initial mixing is a Kerker type mixing with AMIX =  0.4000 and BMIX =      1.0000
 Hartree-type preconditioning will be used
 using additional bands            3
 real space projection scheme for non local part
 calculate Harris-corrections to forces 
   (improved forces if not selfconsistent)
 use gradient corrections 
 use of overlap-Matrix (Vanderbilt PP)
 Gauss-broadening in eV      SIGMA  =   0.10


--------------------------------------------------------------------------------------------------------


  energy-cutoff  :      325.00
  volume of cell :        2.96
      direct lattice vectors                 reciprocal lattice vectors
     1.436285879  0.000000000  0.000000000     0.696240222  0.000000000  0.000000000
     0.000000000  1.436285879  0.000000000     0.000000000  0.696240222  0.000000000
     0.000000000  0.000000000  1.436285879     0.000000000  0.000000000  0.696240222

  length of vectors
     1.436285879  1.436285879  1.436285879     0.696240222  0.696240222  0.696240222


 
 k-points in units of 2pi/SCALE and weight: read from INCAR                         
   0.00000000  0.00000000  0.00000000       0.000
   0.03481201  0.00000000  0.00000000       0.001
   0.06962402  0.00000000  0.00000000       0.001
   0.10443603  0.00000000  0.00000000       0.001
   0.13924804  0.00000000  0.00000000       0.001
   0.17406006  0.00000000  0.00000000       0.001
   0.20887207  0.00000000  0.00000000       0.001
   0.24368408  0.00000000  0.00000000       0.001
   0.27849609  0.00000000  0.00000000       0.001
   0.31330810  0.00000000  0.00000000       0.001
   0.34812011  0.00000000  0.00000000       0.000
   0.03481201  0.03481201  0.00000000       0.002
   0.06962402  0.03481201  0.00000000       0.003
   0.10443603  0.03481201  0.00000000       0.003
   0.13924804  0.03481201  0.00000000       0.003
   0.17406006  0.03481201  0.00000000       0.003
   0.20887207  0.03481201  0.00000000       0.003
   0.24368408  0.03481201  0.00000000       0.003
   0.27849609  0.03481201  0.00000000       0.003
   0.31330810  0.03481201  0.00000000       0.003
   0.34812011  0.03481201  0.00000000       0.002
   0.06962402  0.06962402  0.00000000       0.002
   0.10443603  0.06962402  0.00000000       0.003
   0.13924804  0.06962402  0.00000000       0.003
   0.17406006  0.06962402  0.00000000       0.003
   0.20887207  0.06962402  0.00000000       0.003
   0.24368408  0.06962402  0.00000000       0.003
   0.27849609  0.06962402  0.00000000       0.003
   0.31330810  0.06962402  0.00000000       0.003
   0.34812011  0.06962402  0.00000000       0.002
   0.10443603  0.10443603  0.00000000       0.002
   0.13924804  0.10443603  0.00000000       0.003
   0.17406006  0.10443603  0.00000000       0.003
   0.20887207  0.10443603  0.00000000       0.003
   0.24368408  0.10443603  0.00000000       0.003
   0.27849609  0.10443603  0.00000000       0.003
   0.31330810  0.10443603  0.00000000       0.003
   0.34812011  0.10443603  0.00000000       0.002
   0.13924804  0.13924804  0.00000000       0.002
   0.17406006  0.13924804  0.00000000       0.003
   0.20887207  0.13924804  0.00000000       0.003
   0.24368408  0.13924804  0.00000000       0.003
   0.27849609  0.13924804  0.00000000       0.003
   0.31330810  0.13924804  0.00000000       0.003
   0.34812011  0.13924804  0.00000000       0.002
   0.17406006  0.17406006  0.00000000       0.002
   0.20887207  0.17406006  0.00000000       0.003
   0.24368408  0.17406006  0.00000000       0.003
   0.27849609  0.17406006  0.00000000       0.003
   0.31330810  0.17406006  0.00000000       0.003
   0.34812011  0.17406006  0.00000000       0.002
   0.20887207  0.20887207  0.00000000       0.002
   0.24368408  0.20887207  0.00000000       0.003
   0.27849609  0.20887207  0.00000000       0.003
   0.31330810  0.20887207  0.00000000       0.003
   0.34812011  0.20887207  0.00000000       0.002
   0.24368408  0.24368408  0.00000000       0.002
   0.27849609  0.24368408  0.00000000       0.003
   0.31330810  0.24368408  0.00000000       0.003
   0.34812011  0.24368408  0.00000000       0.002
   0.27849609  0.27849609  0.00000000       0.002
   0.31330810  0.27849609  0.00000000       0.003
   0.34812011  0.27849609  0.00000000       0.002
   0.31330810  0.31330810  0.00000000       0.002
   0.34812011  0.31330810  0.00000000       0.002
   0.34812011  0.34812011  0.00000000       0.000
   0.03481201  0.03481201  0.03481201       0.001
   0.06962402  0.03481201  0.03481201       0.003
   0.10443603  0.03481201  0.03481201       0.003
   0.13924804  0.03481201  0.03481201       0.003
   0.17406006  0.03481201  0.03481201       0.003
   0.20887207  0.03481201  0.03481201       0.003
   0.24368408  0.03481201  0.03481201       0.003
   0.27849609  0.03481201  0.03481201       0.003
   0.31330810  0.03481201  0.03481201       0.003
   0.34812011  0.03481201  0.03481201       0.002
   0.06962402  0.06962402  0.03481201       0.003
   0.10443603  0.06962402  0.03481201       0.006
   0.13924804  0.06962402  0.03481201       0.006
   0.17406006  0.06962402  0.03481201       0.006
   0.20887207  0.06962402  0.03481201       0.006
   0.24368408  0.06962402  0.03481201       0.006
   0.27849609  0.06962402  0.03481201       0.006
   0.31330810  0.06962402  0.03481201       0.006
   0.34812011  0.06962402  0.03481201       0.003
   0.10443603  0.10443603  0.03481201       0.003
   0.13924804  0.10443603  0.03481201       0.006
   0.17406006  0.10443603  0.03481201       0.006
   0.20887207  0.10443603  0.03481201       0.006
   0.24368408  0.10443603  0.03481201       0.006
   0.27849609  0.10443603  0.03481201       0.006
   0.31330810  0.10443603  0.03481201       0.006
   0.34812011  0.10443603  0.03481201       0.003
   0.13924804  0.13924804  0.03481201       0.003
   0.17406006  0.13924804  0.03481201       0.006
   0.20887207  0.13924804  0.03481201       0.006
   0.24368408  0.13924804  0.03481201       0.006
   0.27849609  0.13924804  0.03481201       0.006
   0.31330810  0.13924804  0.03481201       0.006
   0.34812011  0.13924804  0.03481201       0.003
   0.17406006  0.17406006  0.03481201       0.003
   0.20887207  0.17406006  0.03481201       0.006
   0.24368408  0.17406006  0.03481201       0.006
   0.27849609  0.17406006  0.03481201       0.006
   0.31330810  0.17406006  0.03481201       0.006
   0.34812011  0.17406006  0.03481201       0.003
   0.20887207  0.20887207  0.03481201       0.003
   0.24368408  0.20887207  0.03481201       0.006
   0.27849609  0.20887207  0.03481201       0.006
   0.31330810  0.20887207  0.03481201       0.006
   0.34812011  0.20887207  0.03481201       0.003
   0.24368408  0.24368408  0.03481201       0.003
   0.27849609  0.24368408  0.03481201       0.006
   0.31330810  0.24368408  0.03481201       0.006
   0.34812011  0.24368408  0.03481201       0.003
   0.27849609  0.27849609  0.03481201       0.003
   0.31330810  0.27849609  0.03481201       0.006
   0.34812011  0.27849609  0.03481201       0.003
   0.31330810  0.31330810  0.03481201       0.003
   0.34812011  0.31330810  0.03481201       0.003
   0.34812011  0.34812011  0.03481201       0.001
   0.06962402  0.06962402  0.06962402       0.001
   0.10443603  0.06962402  0.06962402       0.003
   0.13924804  0.06962402  0.06962402       0.003
   0.17406006  0.06962402  0.06962402       0.003
   0.20887207  0.06962402  0.06962402       0.003
   0.24368408  0.06962402  0.06962402       0.003
   0.27849609  0.06962402  0.06962402       0.003
   0.31330810  0.06962402  0.06962402       0.003
   0.34812011  0.06962402  0.06962402       0.002
   0.10443603  0.10443603  0.06962402       0.003
   0.13924804  0.10443603  0.06962402       0.006
   0.17406006  0.10443603  0.06962402       0.006
   0.20887207  0.10443603  0.06962402       0.006
   0.24368408  0.10443603  0.06962402       0.006
   0.27849609  0.10443603  0.06962402       0.006
   0.31330810  0.10443603  0.06962402       0.006
   0.34812011  0.10443603  0.06962402       0.003
   0.13924804  0.13924804  0.06962402       0.003
   0.17406006  0.13924804  0.06962402       0.006
   0.20887207  0.13924804  0.06962402       0.006
   0.24368408  0.13924804  0.06962402       0.006
   0.27849609  0.13924804  0.06962402       0.006
   0.31330810  0.13924804  0.06962402       0.006
   0.34812011  0.13924804  0.06962402       0.003
   0.17406006  0.17406006  0.06962402       0.003
   0.20887207  0.17406006  0.06962402       0.006
   0.24368408  0.17406006  0.06962402       0.006
   0.27849609  0.17406006  0.06962402       0.006
   0.31330810  0.17406006  0.06962402       0.006
   0.34812011  0.17406006  0.06962402       0.003
   0.20887207  0.20887207  0.06962402       0.003
   0.24368408  0.20887207  0.06962402       0.006
   0.27849609  0.20887207  0.06962402       0.006
   0.31330810  0.20887207  0.06962402       0.006
   0.34812011  0.20887207  0.06962402       0.003
   0.24368408  0.24368408  0.06962402       0.003
   0.27849609  0.24368408  0.06962402       0.006
   0.31330810  0.24368408  0.06962402       0.006
   0.34812011  0.24368408  0.06962402       0.003
   0.27849609  0.27849609  0.06962402       0.003
   0.31330810  0.27849609  0.06962402       0.006
   0.34812011  0.27849609  0.06962402       0.003
   0.31330810  0.31330810  0.06962402       0.003
   0.34812011  0.31330810  0.06962402       0.003
   0.34812011  0.34812011  0.06962402       0.001
   0.10443603  0.10443603  0.10443603       0.001
   0.13924804  0.10443603  0.10443603       0.003
   0.17406006  0.10443603  0.10443603       0.003
   0.20887207  0.10443603  0.10443603       0.003
   0.24368408  0.10443603  0.10443603       0.003
   0.27849609  0.10443603  0.10443603       0.003
   0.31330810  0.10443603  0.10443603       0.003
   0.34812011  0.10443603  0.10443603       0.002
   0.13924804  0.13924804  0.10443603       0.003
   0.17406006  0.13924804  0.10443603       0.006
   0.20887207  0.13924804  0.10443603       0.006
   0.24368408  0.13924804  0.10443603       0.006
   0.27849609  0.13924804  0.10443603       0.006
   0.31330810  0.13924804  0.10443603       0.006
   0.34812011  0.13924804  0.10443603       0.003
   0.17406006  0.17406006  0.10443603       0.003
   0.20887207  0.17406006  0.10443603       0.006
   0.24368408  0.17406006  0.10443603       0.006
   0.27849609  0.17406006  0.10443603       0.006
   0.31330810  0.17406006  0.10443603       0.006
   0.34812011  0.17406006  0.10443603       0.003
   0.20887207  0.20887207  0.10443603       0.003
   0.24368408  0.20887207  0.10443603       0.006
   0.27849609  0.20887207  0.10443603       0.006
   0.31330810  0.20887207  0.10443603       0.006
   0.34812011  0.20887207  0.10443603       0.003
   0.24368408  0.24368408  0.10443603       0.003
   0.27849609  0.24368408  0.10443603       0.006
   0.31330810  0.24368408  0.10443603       0.006
   0.34812011  0.24368408  0.10443603       0.003
   0.27849609  0.27849609  0.10443603       0.003
   0.31330810  0.27849609  0.10443603       0.006
   0.34812011  0.27849609  0.10443603       0.003
   0.31330810  0.31330810  0.10443603       0.003
   0.34812011  0.31330810  0.10443603       0.003
   0.34812011  0.34812011  0.10443603       0.001
   0.13924804  0.13924804  0.13924804       0.001
   0.17406006  0.13924804  0.13924804       0.003
   0.20887207  0.13924804  0.13924804       0.003
   0.24368408  0.13924804  0.13924804       0.003
   0.27849609  0.13924804  0.13924804       0.003
   0.31330810  0.13924804  0.13924804       0.003
   0.34812011  0.13924804  0.13924804       0.002
   0.17406006  0.17406006  0.13924804       0.003
   0.20887207  0.17406006  0.13924804       0.006
   0.24368408  0.17406006  0.13924804       0.006
   0.27849609  0.17406006  0.13924804       0.006
   0.31330810  0.17406006  0.13924804       0.006
   0.34812011  0.17406006  0.13924804       0.003
   0.20887207  0.20887207  0.13924804       0.003
   0.24368408  0.20887207  0.13924804       0.006
   0.27849609  0.20887207  0.13924804       0.006
   0.31330810  0.20887207  0.13924804       0.006
   0.34812011  0.20887207  0.13924804       0.003
   0.24368408  0.24368408  0.13924804       0.003
   0.27849609  0.24368408  0.13924804       0.006
   0.31330810  0.24368408  0.13924804       0.006
   0.34812011  0.24368408  0.13924804       0.003
   0.27849609  0.27849609  0.13924804       0.003
   0.31330810  0.27849609  0.13924804       0.006
   0.34812011  0.27849609  0.13924804       0.003
   0.31330810  0.31330810  0.13924804       0.003
   0.34812011  0.31330810  0.13924804       0.003
   0.34812011  0.34812011  0.13924804       0.001
   0.17406006  0.17406006  0.17406006       0.001
   0.20887207  0.17406006  0.17406006       0.003
   0.24368408  0.17406006  0.17406006       0.003
   0.27849609  0.17406006  0.17406006       0.003
   0.31330810  0.17406006  0.17406006       0.003
   0.34812011  0.17406006  0.17406006       0.002
   0.20887207  0.20887207  0.17406006       0.003
   0.24368408  0.20887207  0.17406006       0.006
   0.27849609  0.20887207  0.17406006       0.006
   0.31330810  0.20887207  0.17406006       0.006
   0.34812011  0.20887207  0.17406006       0.003
   0.24368408  0.24368408  0.17406006       0.003
   0.27849609  0.24368408  0.17406006       0.006
   0.31330810  0.24368408  0.17406006       0.006
   0.34812011  0.24368408  0.17406006       0.003
   0.27849609  0.27849609  0.17406006       0.003
   0.31330810  0.27849609  0.17406006       0.006
   0.34812011  0.27849609  0.17406006       0.003
   0.31330810  0.31330810  0.17406006       0.003
   0.34812011  0.31330810  0.17406006       0.003
   0.34812011  0.34812011  0.17406006       0.001
   0.20887207  0.20887207  0.20887207       0.001
   0.24368408  0.20887207  0.20887207       0.003
   0.27849609  0.20887207  0.20887207       0.003
   0.31330810  0.20887207  0.20887207       0.003
   0.34812011  0.20887207  0.20887207       0.002
   0.24368408  0.24368408  0.20887207       0.003
   0.27849609  0.24368408  0.20887207       0.006
   0.31330810  0.24368408  0.20887207       0.006
   0.34812011  0.24368408  0.20887207       0.003
   0.27849609  0.27849609  0.20887207       0.003
   0.31330810  0.27849609  0.20887207       0.006
   0.34812011  0.27849609  0.20887207       0.003
   0.31330810  0.31330810  0.20887207       0.003
   0.34812011  0.31330810  0.20887207       0.003
   0.34812011  0.34812011  0.20887207       0.001
   0.24368408  0.24368408  0.24368408       0.001
   0.27849609  0.24368408  0.24368408       0.003
   0.31330810  0.24368408  0.24368408       0.003
   0.34812011  0.24368408  0.24368408       0.002
   0.27849609  0.27849609  0.24368408       0.003
   0.31330810  0.27849609  0.24368408       0.006
   0.34812011  0.27849609  0.24368408       0.003
   0.31330810  0.31330810  0.24368408       0.003
   0.34812011  0.31330810  0.24368408       0.003
   0.34812011  0.34812011  0.24368408       0.001
   0.27849609  0.27849609  0.27849609       0.001
   0.31330810  0.27849609  0.27849609       0.003
   0.34812011  0.27849609  0.27849609       0.002
   0.31330810  0.31330810  0.27849609       0.003
   0.34812011  0.31330810  0.27849609       0.003
   0.34812011  0.34812011  0.27849609       0.001
   0.31330810  0.31330810  0.31330810       0.001
   0.34812011  0.31330810  0.31330810       0.002
   0.34812011  0.34812011  0.31330810       0.001
   0.34812011  0.34812011  0.34812011       0.000
 
 k-points in reciprocal lattice and weights: read from INCAR                         
   0.00000000  0.00000000  0.00000000       0.000
   0.05000000  0.00000000  0.00000000       0.001
   0.10000000  0.00000000  0.00000000       0.001
   0.15000000  0.00000000  0.00000000       0.001
   0.20000000  0.00000000  0.00000000       0.001
   0.25000000  0.00000000  0.00000000       0.001
   0.30000000  0.00000000  0.00000000       0.001
   0.35000000  0.00000000  0.00000000       0.001
   0.40000000  0.00000000  0.00000000       0.001
   0.45000000  0.00000000  0.00000000       0.001
   0.50000000  0.00000000  0.00000000       0.000
   0.05000000  0.05000000  0.00000000       0.002
   0.10000000  0.05000000  0.00000000       0.003
   0.15000000  0.05000000  0.00000000       0.003
   0.20000000  0.05000000  0.00000000       0.003
   0.25000000  0.05000000  0.00000000       0.003
   0.30000000  0.05000000  0.00000000       0.003
   0.35000000  0.05000000  0.00000000       0.003
   0.40000000  0.05000000  0.00000000       0.003
   0.45000000  0.05000000  0.00000000       0.003
   0.50000000  0.05000000  0.00000000       0.002
   0.10000000  0.10000000  0.00000000       0.002
   0.15000000  0.10000000  0.00000000       0.003
   0.20000000  0.10000000  0.00000000       0.003
   0.25000000  0.10000000  0.00000000       0.003
   0.30000000  0.10000000  0.00000000       0.003
   0.35000000  0.10000000  0.00000000       0.003
   0.40000000  0.10000000  0.00000000       0.003
   0.45000000  0.10000000  0.00000000       0.003
   0.50000000  0.10000000  0.00000000       0.002
   0.15000000  0.15000000  0.00000000       0.002
   0.20000000  0.15000000  0.00000000       0.003
   0.25000000  0.15000000  0.00000000       0.003
   0.30000000  0.15000000  0.00000000       0.003
   0.35000000  0.15000000  0.00000000       0.003
   0.40000000  0.15000000  0.00000000       0.003
   0.45000000  0.15000000  0.00000000       0.003
   0.50000000  0.15000000  0.00000000       0.002
   0.20000000  0.20000000  0.00000000       0.002
   0.25000000  0.20000000  0.00000000       0.003
   0.30000000  0.20000000  0.00000000       0.003
   0.35000000  0.20000000  0.00000000       0.003
   0.40000000  0.20000000  0.00000000       0.003
   0.45000000  0.20000000  0.00000000       0.003
   0.50000000  0.20000000  0.00000000       0.002
   0.25000000  0.25000000  0.00000000       0.002
   0.30000000  0.25000000  0.00000000       0.003
   0.35000000  0.25000000  0.00000000       0.003
   0.40000000  0.25000000  0.00000000       0.003
   0.45000000  0.25000000  0.00000000       0.003
   0.50000000  0.25000000  0.00000000       0.002
   0.30000000  0.30000000  0.00000000       0.002
   0.35000000  0.30000000  0.00000000       0.003
   0.40000000  0.30000000  0.00000000       0.003
   0.45000000  0.30000000  0.00000000       0.003
   0.50000000  0.30000000  0.00000000       0.002
   0.35000000  0.35000000  0.00000000       0.002
   0.40000000  0.35000000  0.00000000       0.003
   0.45000000  0.35000000  0.00000000       0.003
   0.50000000  0.35000000  0.00000000       0.002
   0.40000000  0.40000000  0.00000000       0.002
   0.45000000  0.40000000  0.00000000       0.003
   0.50000000  0.40000000  0.00000000       0.002
   0.45000000  0.45000000  0.00000000       0.002
   0.50000000  0.45000000  0.00000000       0.002
   0.50000000  0.50000000  0.00000000       0.000
   0.05000000  0.05000000  0.05000000       0.001
   0.10000000  0.05000000  0.05000000       0.003
   0.15000000  0.05000000  0.05000000       0.003
   0.20000000  0.05000000  0.05000000       0.003
   0.25000000  0.05000000  0.05000000       0.003
   0.30000000  0.05000000  0.05000000       0.003
   0.35000000  0.05000000  0.05000000       0.003
   0.40000000  0.05000000  0.05000000       0.003
   0.45000000  0.05000000  0.05000000       0.003
   0.50000000  0.05000000  0.05000000       0.002
   0.10000000  0.10000000  0.05000000       0.003
   0.15000000  0.10000000  0.05000000       0.006
   0.20000000  0.10000000  0.05000000       0.006
   0.25000000  0.10000000  0.05000000       0.006
   0.30000000  0.10000000  0.05000000       0.006
   0.35000000  0.10000000  0.05000000       0.006
   0.40000000  0.10000000  0.05000000       0.006
   0.45000000  0.10000000  0.05000000       0.006
   0.50000000  0.10000000  0.05000000       0.003
   0.15000000  0.15000000  0.05000000       0.003
   0.20000000  0.15000000  0.05000000       0.006
   0.25000000  0.15000000  0.05000000       0.006
   0.30000000  0.15000000  0.05000000       0.006
   0.35000000  0.15000000  0.05000000       0.006
   0.40000000  0.15000000  0.05000000       0.006
   0.45000000  0.15000000  0.05000000       0.006
   0.50000000  0.15000000  0.05000000       0.003
   0.20000000  0.20000000  0.05000000       0.003
   0.25000000  0.20000000  0.05000000       0.006
   0.30000000  0.20000000  0.05000000       0.006
   0.35000000  0.20000000  0.05000000       0.006
   0.40000000  0.20000000  0.05000000       0.006
   0.45000000  0.20000000  0.05000000       0.006
   0.50000000  0.20000000  0.05000000       0.003
   0.25000000  0.25000000  0.05000000       0.003
   0.30000000  0.25000000  0.05000000       0.006
   0.35000000  0.25000000  0.05000000       0.006
   0.40000000  0.25000000  0.05000000       0.006
   0.45000000  0.25000000  0.05000000       0.006
   0.50000000  0.25000000  0.05000000       0.003
   0.30000000  0.30000000  0.05000000       0.003
   0.35000000  0.30000000  0.05000000       0.006
   0.40000000  0.30000000  0.05000000       0.006
   0.45000000  0.30000000  0.05000000       0.006
   0.50000000  0.30000000  0.05000000       0.003
   0.35000000  0.35000000  0.05000000       0.003
   0.40000000  0.35000000  0.05000000       0.006
   0.45000000  0.35000000  0.05000000       0.006
   0.50000000  0.35000000  0.05000000       0.003
   0.40000000  0.40000000  0.05000000       0.003
   0.45000000  0.40000000  0.05000000       0.006
   0.50000000  0.40000000  0.05000000       0.003
   0.45000000  0.45000000  0.05000000       0.003
   0.50000000  0.45000000  0.05000000       0.003
   0.50000000  0.50000000  0.05000000       0.001
   0.10000000  0.10000000  0.10000000       0.001
   0.15000000  0.10000000  0.10000000       0.003
   0.20000000  0.10000000  0.10000000       0.003
   0.25000000  0.10000000  0.10000000       0.003
   0.30000000  0.10000000  0.10000000       0.003
   0.35000000  0.10000000  0.10000000       0.003
   0.40000000  0.10000000  0.10000000       0.003
   0.45000000  0.10000000  0.10000000       0.003
   0.50000000  0.10000000  0.10000000       0.002
   0.15000000  0.15000000  0.10000000       0.003
   0.20000000  0.15000000  0.10000000       0.006
   0.25000000  0.15000000  0.10000000       0.006
   0.30000000  0.15000000  0.10000000       0.006
   0.35000000  0.15000000  0.10000000       0.006
   0.40000000  0.15000000  0.10000000       0.006
   0.45000000  0.15000000  0.10000000       0.006
   0.50000000  0.15000000  0.10000000       0.003
   0.20000000  0.20000000  0.10000000       0.003
   0.25000000  0.20000000  0.10000000       0.006
   0.30000000  0.20000000  0.10000000       0.006
   0.35000000  0.20000000  0.10000000       0.006
   0.40000000  0.20000000  0.10000000       0.006
   0.45000000  0.20000000  0.10000000       0.006
   0.50000000  0.20000000  0.10000000       0.003
   0.25000000  0.25000000  0.10000000       0.003
   0.30000000  0.25000000  0.10000000       0.006
   0.35000000  0.25000000  0.10000000       0.006
   0.40000000  0.25000000  0.10000000       0.006
   0.45000000  0.25000000  0.10000000       0.006
   0.50000000  0.25000000  0.10000000       0.003
   0.30000000  0.30000000  0.10000000       0.003
   0.35000000  0.30000000  0.10000000       0.006
   0.40000000  0.30000000  0.10000000       0.006
   0.45000000  0.30000000  0.10000000       0.006
   0.50000000  0.30000000  0.10000000       0.003
   0.35000000  0.35000000  0.10000000       0.003
   0.40000000  0.35000000  0.10000000       0.006
   0.45000000  0.35000000  0.10000000       0.006
   0.50000000  0.35000000  0.10000000       0.003
   0.40000000  0.40000000  0.10000000       0.003
   0.45000000  0.40000000  0.10000000       0.006
   0.50000000  0.40000000  0.10000000       0.003
   0.45000000  0.45000000  0.10000000       0.003
   0.50000000  0.45000000  0.10000000       0.003
   0.50000000  0.50000000  0.10000000       0.001
   0.15000000  0.15000000  0.15000000       0.001
   0.20000000  0.15000000  0.15000000       0.003
   0.25000000  0.15000000  0.15000000       0.003
   0.30000000  0.15000000  0.15000000       0.003
   0.35000000  0.15000000  0.15000000       0.003
   0.40000000  0.15000000  0.15000000       0.003
   0.45000000  0.15000000  0.15000000       0.003
   0.50000000  0.15000000  0.15000000       0.002
   0.20000000  0.20000000  0.15000000       0.003
   0.25000000  0.20000000  0.15000000       0.006
   0.30000000  0.20000000  0.15000000       0.006
   0.35000000  0.20000000  0.15000000       0.006
   0.40000000  0.20000000  0.15000000       0.006
   0.45000000  0.20000000  0.15000000       0.006
   0.50000000  0.20000000  0.15000000       0.003
   0.25000000  0.25000000  0.15000000       0.003
   0.30000000  0.25000000  0.15000000       0.006
   0.35000000  0.25000000  0.15000000       0.006
   0.40000000  0.25000000  0.15000000       0.006
   0.45000000  0.25000000  0.15000000       0.006
   0.50000000  0.25000000  0.15000000       0.003
   0.30000000  0.30000000  0.15000000       0.003
   0.35000000  0.30000000  0.15000000       0.006
   0.40000000  0.30000000  0.15000000       0.006
   0.45000000  0.30000000  0.15000000       0.006
   0.50000000  0.30000000  0.15000000       0.003
   0.35000000  0.35000000  0.15000000       0.003
   0.40000000  0.35000000  0.15000000       0.006
   0.45000000  0.35000000  0.15000000       0.006
   0.50000000  0.35000000  0.15000000       0.003
   0.40000000  0.40000000  0.15000000       0.003
   0.45000000  0.40000000  0.15000000       0.006
   0.50000000  0.40000000  0.15000000       0.003
   0.45000000  0.45000000  0.15000000       0.003
   0.50000000  0.45000000  0.15000000       0.003
   0.50000000  0.50000000  0.15000000       0.001
   0.20000000  0.20000000  0.20000000       0.001
   0.25000000  0.20000000  0.20000000       0.003
   0.30000000  0.20000000  0.20000000       0.003
   0.35000000  0.20000000  0.20000000       0.003
   0.40000000  0.20000000  0.20000000       0.003
   0.45000000  0.20000000  0.20000000       0.003
   0.50000000  0.20000000  0.20000000       0.002
   0.25000000  0.25000000  0.20000000       0.003
   0.30000000  0.25000000  0.20000000       0.006
   0.35000000  0.25000000  0.20000000       0.006
   0.40000000  0.25000000  0.20000000       0.006
   0.45000000  0.25000000  0.20000000       0.006
   0.50000000  0.25000000  0.20000000       0.003
   0.30000000  0.30000000  0.20000000       0.003
   0.35000000  0.30000000  0.20000000       0.006
   0.40000000  0.30000000  0.20000000       0.006
   0.45000000  0.30000000  0.20000000       0.006
   0.50000000  0.30000000  0.20000000       0.003
   0.35000000  0.35000000  0.20000000       0.003
   0.40000000  0.35000000  0.20000000       0.006
   0.45000000  0.35000000  0.20000000       0.006
   0.50000000  0.35000000  0.20000000       0.003
   0.40000000  0.40000000  0.20000000       0.003
   0.45000000  0.40000000  0.20000000       0.006
   0.50000000  0.40000000  0.20000000       0.003
   0.45000000  0.45000000  0.20000000       0.003
   0.50000000  0.45000000  0.20000000       0.003
   0.50000000  0.50000000  0.20000000       0.001
   0.25000000  0.25000000  0.25000000       0.001
   0.30000000  0.25000000  0.25000000       0.003
   0.35000000  0.25000000  0.25000000       0.003
   0.40000000  0.25000000  0.25000000       0.003
   0.45000000  0.25000000  0.25000000       0.003
   0.50000000  0.25000000  0.25000000       0.002
   0.30000000  0.30000000  0.25000000       0.003
   0.35000000  0.30000000  0.25000000       0.006
   0.40000000  0.30000000  0.25000000       0.006
   0.45000000  0.30000000  0.25000000       0.006
   0.50000000  0.30000000  0.25000000       0.003
   0.35000000  0.35000000  0.25000000       0.003
   0.40000000  0.35000000  0.25000000       0.006
   0.45000000  0.35000000  0.25000000       0.006
   0.50000000  0.35000000  0.25000000       0.003
   0.40000000  0.40000000  0.25000000       0.003
   0.45000000  0.40000000  0.25000000       0.006
   0.50000000  0.40000000  0.25000000       0.003
   0.45000000  0.45000000  0.25000000       0.003
   0.50000000  0.45000000  0.25000000       0.003
   0.50000000  0.50000000  0.25000000       0.001
   0.30000000  0.30000000  0.30000000       0.001
   0.35000000  0.30000000  0.30000000       0.003
   0.40000000  0.30000000  0.30000000       0.003
   0.45000000  0.30000000  0.30000000       0.003
   0.50000000  0.30000000  0.30000000       0.002
   0.35000000  0.35000000  0.30000000       0.003
   0.40000000  0.35000000  0.30000000       0.006
   0.45000000  0.35000000  0.30000000       0.006
   0.50000000  0.35000000  0.30000000       0.003
   0.40000000  0.40000000  0.30000000       0.003
   0.45000000  0.40000000  0.30000000       0.006
   0.50000000  0.40000000  0.30000000       0.003
   0.45000000  0.45000000  0.30000000       0.003
   0.50000000  0.45000000  0.30000000       0.003
   0.50000000  0.50000000  0.30000000       0.001
   0.35000000  0.35000000  0.35000000       0.001
   0.40000000  0.35000000  0.35000000       0.003
   0.45000000  0.35000000  0.35000000       0.003
   0.50000000  0.35000000  0.35000000       0.002
   0.40000000  0.40000000  0.35000000       0.003
   0.45000000  0.40000000  0.35000000       0.006
   0.50000000  0.40000000  0.35000000       0.003
   0.45000000  0.45000000  0.35000000       0.003
   0.50000000  0.45000000  0.35000000       0.003
   0.50000000  0.50000000  0.35000000       0.001
   0.40000000  0.40000000  0.40000000       0.001
   0.45000000  0.40000000  0.40000000       0.003
   0.50000000  0.40000000  0.40000000       0.002
   0.45000000  0.45000000  0.40000000       0.003
   0.50000000  0.45000000  0.40000000       0.003
   0.50000000  0.50000000  0.40000000       0.001
   0.45000000  0.45000000  0.45000000       0.001
   0.50000000  0.45000000  0.45000000       0.002
   0.50000000  0.50000000  0.45000000       0.001
   0.50000000  0.50000000  0.50000000       0.000
 
 position of ions in fractional coordinates (direct lattice) 
   0.00000000  0.00000000  0.00000000
 
 position of ions in cartesian coordinates  (Angst):
   0.00000000  0.00000000  0.00000000
 


--------------------------------------------------------------------------------------------------------


 k-point  1 :  0.00000.00000.0000  plane waves:      33
 k-point  2 :  0.05000.00000.0000  plane waves:      33
 k-point  3 :  0.10000.00000.0000  plane waves:      33
 k-point  4 :  0.15000.00000.0000  plane waves:      36
 k-point  5 :  0.20000.00000.0000  plane waves:      36
 k-point  6 :  0.25000.00000.0000  plane waves:      36
 k-point  7 :  0.30000.00000.0000  plane waves:      36
 k-point  8 :  0.35000.00000.0000  plane waves:      40
 k-point  9 :  0.40000.00000.0000  plane waves:      40
 k-point 10 :  0.45000.00000.0000  plane waves:      44
 k-point 11 :  0.50000.00000.0000  plane waves:      44
 k-point 12 :  0.05000.05000.0000  plane waves:      33
 k-point 13 :  0.10000.05000.0000  plane waves:      33
 k-point 14 :  0.15000.05000.0000  plane waves:      35
 k-point 15 :  0.20000.05000.0000  plane waves:      37
 k-point 16 :  0.25000.05000.0000  plane waves:      37
 k-point 17 :  0.30000.05000.0000  plane waves:      37
 k-point 18 :  0.35000.05000.0000  plane waves:      39
 k-point 19 :  0.40000.05000.0000  plane waves:      39
 k-point 20 :  0.45000.05000.0000  plane waves:      41
 k-point 21 :  0.50000.05000.0000  plane waves:      44
 k-point 22 :  0.10000.10000.0000  plane waves:      35
 k-point 23 :  0.15000.10000.0000  plane waves:      36
 k-point 24 :  0.20000.10000.0000  plane waves:      37
 k-point 25 :  0.25000.10000.0000  plane waves:      36
 k-point 26 :  0.30000.10000.0000  plane waves:      36
 k-point 27 :  0.35000.10000.0000  plane waves:      38
 k-point 28 :  0.40000.10000.0000  plane waves:      40
 k-point 29 :  0.45000.10000.0000  plane waves:      40
 k-point 30 :  0.50000.10000.0000  plane waves:      38
 k-point 31 :  0.15000.15000.0000  plane waves:      37
 k-point 32 :  0.20000.15000.0000  plane waves:      35
 k-point 33 :  0.25000.15000.0000  plane waves:      36
 k-point 34 :  0.30000.15000.0000  plane waves:      36
 k-point 35 :  0.35000.15000.0000  plane waves:      40
 k-point 36 :  0.40000.15000.0000  plane waves:      40
 k-point 37 :  0.45000.15000.0000  plane waves:      40
 k-point 38 :  0.50000.15000.0000  plane waves:      38
 k-point 39 :  0.20000.20000.0000  plane waves:      37
 k-point 40 :  0.25000.20000.0000  plane waves:      37
 k-point 41 :  0.30000.20000.0000  plane waves:      38
 k-point 42 :  0.35000.20000.0000  plane waves:      40
 k-point 43 :  0.40000.20000.0000  plane waves:      42
 k-point 44 :  0.45000.20000.0000  plane waves:      40
 k-point 45 :  0.50000.20000.0000  plane waves:      38
 k-point 46 :  0.25000.25000.0000  plane waves:      37
 k-point 47 :  0.30000.25000.0000  plane waves:      40
 k-point 48 :  0.35000.25000.0000  plane waves:      40
 k-point 49 :  0.40000.25000.0000  plane waves:      42
 k-point 50 :  0.45000.25000.0000  plane waves:      42
 k-point 51 :  0.50000.25000.0000  plane waves:      42
 k-point 52 :  0.30000.30000.0000  plane waves:      41
 k-point 53 :  0.35000.30000.0000  plane waves:      40
 k-point 54 :  0.40000.30000.0000  plane waves:      42
 k-point 55 :  0.45000.30000.0000  plane waves:      42
 k-point 56 :  0.50000.30000.0000  plane waves:      42
 k-point 57 :  0.35000.35000.0000  plane waves:      39
 k-point 58 :  0.40000.35000.0000  plane waves:      40
 k-point 59 :  0.45000.35000.0000  plane waves:      42
 k-point 60 :  0.50000.35000.0000  plane waves:      42
 k-point 61 :  0.40000.40000.0000  plane waves:      39
 k-point 62 :  0.45000.40000.0000  plane waves:      40
 k-point 63 :  0.50000.40000.0000  plane waves:      42
 k-point 64 :  0.45000.45000.0000  plane waves:      39
 k-point 65 :  0.50000.45000.0000  plane waves:      42
 k-point 66 :  0.50000.50000.0000  plane waves:      36
 k-point 67 :  0.05000.05000.0500  plane waves:      33
 k-point 68 :  0.10000.05000.0500  plane waves:      33
 k-point 69 :  0.15000.05000.0500  plane waves:      34
 k-point 70 :  0.20000.05000.0500  plane waves:      38
 k-point 71 :  0.25000.05000.0500  plane waves:      38
 k-point 72 :  0.30000.05000.0500  plane waves:      38
 k-point 73 :  0.35000.05000.0500  plane waves:      38
 k-point 74 :  0.40000.05000.0500  plane waves:      39
 k-point 75 :  0.45000.05000.0500  plane waves:      41
 k-point 76 :  0.50000.05000.0500  plane waves:      44
 k-point 77 :  0.10000.10000.0500  plane waves:      35
 k-point 78 :  0.15000.10000.0500  plane waves:      35
 k-point 79 :  0.20000.10000.0500  plane waves:      38
 k-point 80 :  0.25000.10000.0500  plane waves:      37
 k-point 81 :  0.30000.10000.0500  plane waves:      37
 k-point 82 :  0.35000.10000.0500  plane waves:      38
 k-point 83 :  0.40000.10000.0500  plane waves:      38
 k-point 84 :  0.45000.10000.0500  plane waves:      39
 k-point 85 :  0.50000.10000.0500  plane waves:      38
 k-point 86 :  0.15000.15000.0500  plane waves:      35
 k-point 87 :  0.20000.15000.0500  plane waves:      36
 k-point 88 :  0.25000.15000.0500  plane waves:      38
 k-point 89 :  0.30000.15000.0500  plane waves:      38
 k-point 90 :  0.35000.15000.0500  plane waves:      39
 k-point 91 :  0.40000.15000.0500  plane waves:      39
 k-point 92 :  0.45000.15000.0500  plane waves:      38
 k-point 93 :  0.50000.15000.0500  plane waves:      36
 k-point 94 :  0.20000.20000.0500  plane waves:      37
 k-point 95 :  0.25000.20000.0500  plane waves:      38
 k-point 96 :  0.30000.20000.0500  plane waves:      40
 k-point 97 :  0.35000.20000.0500  plane waves:      39
 k-point 98 :  0.40000.20000.0500  plane waves:      39
 k-point 99 :  0.45000.20000.0500  plane waves:      40
 k-point ** :  0.50000.20000.0500  plane waves:      38
 k-point ** :  0.25000.25000.0500  plane waves:      39
 k-point ** :  0.30000.25000.0500  plane waves:      42
 k-point ** :  0.35000.25000.0500  plane waves:      41
 k-point ** :  0.40000.25000.0500  plane waves:      41
 k-point ** :  0.45000.25000.0500  plane waves:      39
 k-point ** :  0.50000.25000.0500  plane waves:      40
 k-point ** :  0.30000.30000.0500  plane waves:      40
 k-point ** :  0.35000.30000.0500  plane waves:      43
 k-point ** :  0.40000.30000.0500  plane waves:      42
 k-point ** :  0.45000.30000.0500  plane waves:      40
 k-point ** :  0.50000.30000.0500  plane waves:      40
 k-point ** :  0.35000.35000.0500  plane waves:      41
 k-point ** :  0.40000.35000.0500  plane waves:      41
 k-point ** :  0.45000.35000.0500  plane waves:      41
 k-point ** :  0.50000.35000.0500  plane waves:      40
 k-point ** :  0.40000.40000.0500  plane waves:      40
 k-point ** :  0.45000.40000.0500  plane waves:      41
 k-point ** :  0.50000.40000.0500  plane waves:      42
 k-point ** :  0.45000.45000.0500  plane waves:      41
 k-point ** :  0.50000.45000.0500  plane waves:      42
 k-point ** :  0.50000.50000.0500  plane waves:      40
 k-point ** :  0.10000.10000.1000  plane waves:      39
 k-point ** :  0.15000.10000.1000  plane waves:      38
 k-point ** :  0.20000.10000.1000  plane waves:      34
 k-point ** :  0.25000.10000.1000  plane waves:      36
 k-point ** :  0.30000.10000.1000  plane waves:      36
 k-point ** :  0.35000.10000.1000  plane waves:      37
 k-point ** :  0.40000.10000.1000  plane waves:      37
 k-point ** :  0.45000.10000.1000  plane waves:      38
 k-point ** :  0.50000.10000.1000  plane waves:      38
 k-point ** :  0.15000.15000.1000  plane waves:      37
 k-point ** :  0.20000.15000.1000  plane waves:      36
 k-point ** :  0.25000.15000.1000  plane waves:      38
 k-point ** :  0.30000.15000.1000  plane waves:      39
 k-point ** :  0.35000.15000.1000  plane waves:      39
 k-point ** :  0.40000.15000.1000  plane waves:      37
 k-point ** :  0.45000.15000.1000  plane waves:      38
 k-point ** :  0.50000.15000.1000  plane waves:      38
 k-point ** :  0.20000.20000.1000  plane waves:      36
 k-point ** :  0.25000.20000.1000  plane waves:      37
 k-point ** :  0.30000.20000.1000  plane waves:      39
 k-point ** :  0.35000.20000.1000  plane waves:      38
 k-point ** :  0.40000.20000.1000  plane waves:      40
 k-point ** :  0.45000.20000.1000  plane waves:      40
 k-point ** :  0.50000.20000.1000  plane waves:      38
 k-point ** :  0.25000.25000.1000  plane waves:      40
 k-point ** :  0.30000.25000.1000  plane waves:      39
 k-point ** :  0.35000.25000.1000  plane waves:      40
 k-point ** :  0.40000.25000.1000  plane waves:      41
 k-point ** :  0.45000.25000.1000  plane waves:      39
 k-point ** :  0.50000.25000.1000  plane waves:      40
 k-point ** :  0.30000.30000.1000  plane waves:      39
 k-point ** :  0.35000.30000.1000  plane waves:      41
 k-point ** :  0.40000.30000.1000  plane waves:      40
 k-point ** :  0.45000.30000.1000  plane waves:      42
 k-point ** :  0.50000.30000.1000  plane waves:      42
 k-point ** :  0.35000.35000.1000  plane waves:      42
 k-point ** :  0.40000.35000.1000  plane waves:      42
 k-point ** :  0.45000.35000.1000  plane waves:      42
 k-point ** :  0.50000.35000.1000  plane waves:      42
 k-point ** :  0.40000.40000.1000  plane waves:      41
 k-point ** :  0.45000.40000.1000  plane waves:      42
 k-point ** :  0.50000.40000.1000  plane waves:      42
 k-point ** :  0.45000.45000.1000  plane waves:      41
 k-point ** :  0.50000.45000.1000  plane waves:      42
 k-point ** :  0.50000.50000.1000  plane waves:      40
 k-point ** :  0.15000.15000.1500  plane waves:      36
 k-point ** :  0.20000.15000.1500  plane waves:      36
 k-point ** :  0.25000.15000.1500  plane waves:      38
 k-point ** :  0.30000.15000.1500  plane waves:      39
 k-point ** :  0.35000.15000.1500  plane waves:      38
 k-point ** :  0.40000.15000.1500  plane waves:      38
 k-point ** :  0.45000.15000.1500  plane waves:      42
 k-point ** :  0.50000.15000.1500  plane waves:      42
 k-point ** :  0.20000.20000.1500  plane waves:      36
 k-point ** :  0.25000.20000.1500  plane waves:      38
 k-point ** :  0.30000.20000.1500  plane waves:      40
 k-point ** :  0.35000.20000.1500  plane waves:      39
 k-point ** :  0.40000.20000.1500  plane waves:      40
 k-point ** :  0.45000.20000.1500  plane waves:      41
 k-point ** :  0.50000.20000.1500  plane waves:      42
 k-point ** :  0.25000.25000.1500  plane waves:      40
 k-point ** :  0.30000.25000.1500  plane waves:      38
 k-point ** :  0.35000.25000.1500  plane waves:      40
 k-point ** :  0.40000.25000.1500  plane waves:      41
 k-point ** :  0.45000.25000.1500  plane waves:      41
 k-point ** :  0.50000.25000.1500  plane waves:      40
 k-point ** :  0.30000.30000.1500  plane waves:      40
 k-point ** :  0.35000.30000.1500  plane waves:      41
 k-point ** :  0.40000.30000.1500  plane waves:      42
 k-point ** :  0.45000.30000.1500  plane waves:      41
 k-point ** :  0.50000.30000.1500  plane waves:      40
[...]
      1      14.6173      0.00000
      2      26.7984      0.00000
      3      30.0285      0.00000
      4      34.8440      0.00000

 k-point 230 :       0.5000    0.5000    0.2000
  band No.  band energies     occupation 
      1      15.3598      0.00000
      2      28.9595      0.00000
      3      28.9595      0.00000
      4      32.3238      0.00000

 k-point 231 :       0.2500    0.2500    0.2500
  band No.  band energies     occupation 
      1      -0.5945      2.00000
      2      32.6200      0.00000
      3      39.7152      0.00000
      4      39.7152      0.00000

 k-point 232 :       0.3000    0.2500    0.2500
  band No.  band energies     occupation 
      1       1.2519      2.00000
      2      30.5264      0.00000
      3      38.5541      0.00000
      4      41.6942      0.00000

 k-point 233 :       0.3500    0.2500    0.2500
  band No.  band energies     occupation 
      1       3.3576      0.00000
      2      26.7014      0.00000
      3      39.8184      0.00000
      4      44.0165      0.00000

 k-point 234 :       0.4000    0.2500    0.2500
  band No.  band energies     occupation 
      1       5.6229      0.00000
      2      22.9051      0.00000
      3      41.7892      0.00000
      4      46.6521      0.00000

 k-point 235 :       0.4500    0.2500    0.2500
  band No.  band energies     occupation 
      1       7.7211      0.00000
      2      19.8315      0.00000
      3      43.7508      0.00000
      4      49.4687      0.00000

 k-point 236 :       0.5000    0.2500    0.2500
  band No.  band energies     occupation 
      1       8.7156      0.00000
      2      18.4930      0.00000
      3      44.6968      0.00000
      4      51.3406      0.00000

 k-point 237 :       0.3000    0.3000    0.2500
  band No.  band energies     occupation 
      1       3.0883      0.00000
      2      30.8064      0.00000
      3      36.4311      0.00000
      4      42.2725      0.00000

 k-point 238 :       0.3500    0.3000    0.2500
  band No.  band energies     occupation 
      1       5.1810      0.00000
      2      28.2776      0.00000
      3      36.6691      0.00000
      4      44.3458      0.00000

 k-point 239 :       0.4000    0.3000    0.2500
  band No.  band energies     occupation 
      1       7.4177      0.00000
      2      24.7447      0.00000
      3      38.5559      0.00000
      4      46.7907      0.00000

 k-point 240 :       0.4500    0.3000    0.2500
  band No.  band energies     occupation 
      1       9.4716      0.00000
      2      21.7722      0.00000
      3      40.6525      0.00000
      4      49.2312      0.00000

 k-point 241 :       0.5000    0.3000    0.2500
  band No.  band energies     occupation 
      1      10.4484      0.00000
      2      20.4852      0.00000
      3      41.7480      0.00000
      4      49.8664      0.00000

 k-point 242 :       0.3500    0.3500    0.2500
  band No.  band energies     occupation 
      1       7.2488      0.00000
      2      28.9517      0.00000
      3      33.8703      0.00000
      4      46.2339      0.00000

 k-point 243 :       0.4000    0.3500    0.2500
  band No.  band energies     occupation 
      1       9.4450      0.00000
      2      26.7342      0.00000
      3      34.5942      0.00000
      4      48.1487      0.00000

 k-point 244 :       0.4500    0.3500    0.2500
  band No.  band energies     occupation 
      1      11.4453      0.00000
      2      24.0308      0.00000
      3      36.6551      0.00000
      4      46.5252      0.00000

 k-point 245 :       0.5000    0.3500    0.2500
  band No.  band energies     occupation 
      1      12.3684      0.00000
      2      22.8272      0.00000
      3      37.8641      0.00000
      4      44.9911      0.00000

 k-point 246 :       0.4000    0.4000    0.2500
  band No.  band energies     occupation 
      1      11.5906      0.00000
      2      27.9618      0.00000
      3      32.0455      0.00000
      4      45.7157      0.00000

 k-point 247 :       0.4500    0.4000    0.2500
  band No.  band energies     occupation 
      1      13.4719      0.00000
      2      26.5109      0.00000
      3      33.0580      0.00000
      4      42.2487      0.00000

 k-point 248 :       0.5000    0.4000    0.2500
  band No.  band energies     occupation 
      1      14.3238      0.00000
      2      25.5027      0.00000
      3      34.2827      0.00000
      4      40.4954      0.00000

 k-point 249 :       0.4500    0.4500    0.2500
  band No.  band energies     occupation 
      1      15.2316      0.00000
      2      28.5456      0.00000
      3      30.9494      0.00000
      4      38.4997      0.00000

 k-point 250 :       0.5000    0.4500    0.2500
  band No.  band energies     occupation 
      1      15.9852      0.00000
      2      28.4275      0.00000
      3      31.6248      0.00000
      4      36.4780      0.00000

 k-point 251 :       0.5000    0.5000    0.2500
  band No.  band energies     occupation 
      1      16.7086      0.00000
      2      30.5844      0.00000
      3      30.5844      0.00000
      4      33.9624      0.00000

 k-point 252 :       0.3000    0.3000    0.3000
  band No.  band energies     occupation 
      1       4.9136      0.00000
      2      31.4484      0.00000
      3      38.4100      0.00000
      4      38.4100      0.00000

 k-point 253 :       0.3500    0.3000    0.3000
  band No.  band energies     occupation 
      1       6.9923      0.00000
      2      29.7957      0.00000
      3      37.5661      0.00000
      4      40.7324      0.00000

 k-point 254 :       0.4000    0.3000    0.3000
  band No.  band energies     occupation 
      1       9.1982      0.00000
      2      26.5677      0.00000
      3      39.0171      0.00000
      4      43.3675      0.00000

 k-point 255 :       0.4500    0.3000    0.3000
  band No.  band energies     occupation 
      1      11.2127      0.00000
      2      23.7163      0.00000
      3      40.8643      0.00000
      4      46.1839      0.00000

 k-point 256 :       0.5000    0.3000    0.3000
  band No.  band energies     occupation 
      1      12.1428      0.00000
      2      22.4727      0.00000
      3      41.8007      0.00000
      4      48.0555      0.00000

 k-point 257 :       0.3500    0.3500    0.3000
  band No.  band energies     occupation 
      1       9.0444      0.00000
      2      30.4776      0.00000
      3      35.8554      0.00000
      4      41.6159      0.00000

 k-point 258 :       0.4000    0.3500    0.3000
  band No.  band energies     occupation 
      1      11.2111      0.00000
      2      28.5348      0.00000
      3      36.3720      0.00000
      4      43.9338      0.00000

 k-point 259 :       0.4500    0.3500    0.3000
  band No.  band energies     occupation 
      1      13.1555      0.00000
      2      25.9695      0.00000
      3      38.2399      0.00000
      4      46.3443      0.00000

 k-point 260 :       0.5000    0.3500    0.3000
  band No.  band energies     occupation 
      1      14.0486      0.00000
      2      24.8166      0.00000
      3      39.3231      0.00000
      4      46.9621      0.00000

 k-point 261 :       0.4000    0.4000    0.3000
  band No.  band energies     occupation 
      1      13.3081      0.00000
      2      29.7332      0.00000
      3      34.0244      0.00000
      4      45.7163      0.00000

 k-point 262 :       0.4500    0.4000    0.3000
  band No.  band energies     occupation 
      1      15.1518      0.00000
      2      28.4366      0.00000
      3      34.9379      0.00000
      4      44.1100      0.00000

 k-point 263 :       0.5000    0.4000    0.3000
  band No.  band energies     occupation 
      1      15.9772      0.00000
      2      27.4913      0.00000
      3      36.1009      0.00000
      4      42.4840      0.00000

 k-point 264 :       0.4500    0.4500    0.3000
  band No.  band energies     occupation 
      1      16.8573      0.00000
      2      30.4644      0.00000
      3      32.9283      0.00000
      4      40.4561      0.00000

 k-point 265 :       0.5000    0.4500    0.3000
  band No.  band energies     occupation 
      1      17.5802      0.00000
      2      30.4134      0.00000
      3      33.5568      0.00000
      4      38.4713      0.00000

 k-point 266 :       0.5000    0.5000    0.3000
  band No.  band energies     occupation 
      1      18.2768      0.00000
      2      32.5633      0.00000
      3      32.5633      0.00000
      4      35.9635      0.00000

 k-point 267 :       0.3500    0.3500    0.3500
  band No.  band energies     occupation 
      1      11.0666      0.00000
      2      31.5083      0.00000
      3      38.1777      0.00000
      4      38.1777      0.00000

 k-point 268 :       0.4000    0.3500    0.3500
  band No.  band energies     occupation 
      1      13.1907      0.00000
      2      30.4449      0.00000
      3      37.6016      0.00000
      4      40.8129      0.00000

 k-point 269 :       0.4500    0.3500    0.3500
  band No.  band energies     occupation 
      1      15.0604      0.00000
      2      28.2127      0.00000
      3      38.9884      0.00000
      4      43.6288      0.00000

 k-point 270 :       0.5000    0.3500    0.3500
  band No.  band energies     occupation 
      1      15.9197      0.00000
      2      27.1599      0.00000
      3      39.8794      0.00000
      4      45.5105      0.00000

 k-point 271 :       0.4000    0.4000    0.3500
  band No.  band energies     occupation 
      1      15.2404      0.00000
      2      31.6555      0.00000
      3      36.3529      0.00000
      4      41.9272      0.00000

 k-point 272 :       0.4500    0.4000    0.3500
  band No.  band energies     occupation 
      1      17.0192      0.00000
      2      30.6710      0.00000
      3      37.0274      0.00000
      4      44.2159      0.00000

 k-point 273 :       0.5000    0.4000    0.3500
  band No.  band energies     occupation 
      1      17.7797      0.00000
      2      29.8305      0.00000
      3      38.0143      0.00000
      4      44.8115      0.00000

 k-point 274 :       0.4500    0.4500    0.3500
  band No.  band energies     occupation 
      1      18.6482      0.00000
      2      32.6926      0.00000
      3      35.2517      0.00000
      4      42.6979      0.00000

 k-point 275 :       0.5000    0.4500    0.3500
  band No.  band energies     occupation 
      1      19.3508      0.00000
      2      32.7541      0.00000
      3      35.8077      0.00000
      4      40.8192      0.00000

 k-point 276 :       0.5000    0.5000    0.3500
  band No.  band energies     occupation 
      1      19.9742      0.00000
      2      34.8856      0.00000
      3      34.8856      0.00000
      4      38.3249      0.00000

 k-point 277 :       0.4000    0.4000    0.4000
  band No.  band energies     occupation 
      1      17.2098      0.00000
      2      33.2062      0.00000
      3      38.9881      0.00000
      4      38.9881      0.00000

 k-point 278 :       0.4500    0.4000    0.4000
  band No.  band energies     occupation 
      1      18.8809      0.00000
      2      33.0936      0.00000
      3      38.5780      0.00000
      4      41.8042      0.00000

 k-point 279 :       0.5000    0.4000    0.4000
  band No.  band energies     occupation 
      1      19.5924      0.00000
      2      32.5029      0.00000
      3      39.2031      0.00000
      4      43.6850      0.00000

 k-point 280 :       0.4500    0.4500    0.4000
  band No.  band energies     occupation 
      1      20.4255      0.00000
      2      35.1313      0.00000
      3      37.8932      0.00000
      4      42.9151      0.00000

 k-point 281 :       0.5000    0.4500    0.4000
  band No.  band energies     occupation 
      1      21.0739      0.00000
      2      35.4181      0.00000
      3      38.2511      0.00000
      4      43.5010      0.00000

 k-point 282 :       0.5000    0.5000    0.4000
  band No.  band energies     occupation 
      1      21.7160      0.00000
      2      37.5361      0.00000
      3      37.5361      0.00000
      4      41.0412      0.00000

 k-point 283 :       0.4500    0.4500    0.4500
  band No.  band energies     occupation 
      1      21.8649      0.00000
      2      37.4231      0.00000
      3      40.7157      0.00000
      4      40.7157      0.00000

 k-point 284 :       0.5000    0.4500    0.4500
  band No.  band energies     occupation 
      1      22.4491      0.00000
      2      38.3088      0.00000
      3      40.2656      0.00000
      4      42.5915      0.00000

 k-point 285 :       0.5000    0.5000    0.4500
  band No.  band energies     occupation 
      1      23.0105      0.00000
      2      40.3518      0.00000
      3      40.3518      0.00000
      4      43.0989      0.00000

 k-point 286 :       0.5000    0.5000    0.5000
  band No.  band energies     occupation 
      1      23.5217      0.00000
      2      42.2263      0.00000
      3      42.2263      0.00000
      4      46.6639      0.00000


--------------------------------------------------------------------------------------------------------


 soft charge-density along one line, spin component           1
         0         1         2         3         4         5         6         7         8         9
 total charge-density along one line
 
 pseudopotential strength for first ion, spin component:           1
 -2.263   0.001   0.000  -0.000   0.000
  0.001   0.049   0.000  -0.000   0.000
  0.000   0.000  -0.364  -0.000   0.000
 -0.000  -0.000  -0.000  -0.364  -0.000
  0.000   0.000   0.000  -0.000  -0.364
 total augmentation occupancy for first ion, spin component:           1
  1.168  -0.414   0.000   0.000   0.000
 -0.414   0.215   0.000   0.000   0.000
  0.000   0.000   0.013  -0.000  -0.000
  0.000   0.000  -0.000   0.013   0.000
  0.000   0.000  -0.000   0.000   0.013


------------------------ aborting loop because EDIFF is reached ----------------------------------------


 


 total charge     
 
# of ion     s       p       d       tot
----------------------------------------
  1        0.436   0.023   0.000   0.458
 
    CHARGE:  cpu time    0.00: real time    0.00
    FORLOC:  cpu time    0.00: real time    0.00
    FORNL :  cpu time    0.05: real time    0.11
    STRESS:  cpu time    0.15: real time    0.31
    FORHAR:  cpu time    0.00: real time    0.00
    MIXING:  cpu time    0.00: real time    0.00

  FORCE on cell =-STRESS in cart. coord.  units (eV):
  Direction    XX          YY          ZZ          XY          YZ          ZX
  --------------------------------------------------------------------------------------
  Alpha Z     0.82382     0.82382     0.82382
  Ewald      -4.74404    -4.74404    -4.74404     0.00000     0.00000     0.00000
  Hartree     0.12013     0.12013     0.12013    -0.00000    -0.00000    -0.00000
  E(xc)      -2.81903    -2.81903    -2.81903     0.00000    -0.00000    -0.00000
  Local      -0.21163    -0.21163    -0.21163    -0.00000    -0.00000    -0.00000
  n-local    -1.93158    -2.09246    -2.13830     0.04501     0.01551     0.02041
  augment     0.08918     0.08918     0.08918    -0.00000     0.00000     0.00000
  Kinetic    17.11625     6.36047     2.88299     6.09105     1.81697     2.70397
  Fock        0.00000     0.00000     0.00000     0.00000     0.00000     0.00000
  -------------------------------------------------------------------------------------
  Total      -0.00912    -0.00912    -0.00912    -0.00000     0.00000    -0.00000
  in kB      -4.94258    -4.94258    -4.94258    -0.00000     0.00000    -0.00000
  external pressure =       -4.94 kB  Pullay stress =        0.00 kB


 VOLUME and BASIS-vectors are now :
 -----------------------------------------------------------------------------
  energy-cutoff  :      325.00
  volume of cell :        2.96
      direct lattice vectors                 reciprocal lattice vectors
     1.435360550 -0.000000000  0.000000000     0.696689065 -0.000000000 -0.000000000
     0.000000000  1.435360550 -0.000000000     0.000000000  0.696689065 -0.000000000
     0.000000000  0.000000000  1.435360550    -0.000000000  0.000000000  0.696689065

  length of vectors
     1.435360550  1.435360550  1.435360550     0.696689065  0.696689065  0.696689065


 FORCES acting on ions
    electron-ion (+dipol)            ewald-force                    non-local-force                 convergence-correction
 -----------------------------------------------------------------------------------------------
   0.193E-16 0.224E-16 -.676E-16   -.152E-16 -.233E-18 0.512E-16   0.495E-27 0.498E-27 0.000E+00   0.364E-17 0.876E-17 -.179E-16
 -----------------------------------------------------------------------------------------------
   0.193E-16 0.224E-16 -.676E-16   -.152E-16 -.233E-18 0.512E-16   0.495E-27 0.498E-27 0.000E+00   0.364E-17 0.876E-17 -.179E-16
 
 
 POSITION                                       TOTAL-FORCE (eV/Angst)
 -----------------------------------------------------------------------------------
      0.00000      0.00000      0.00000         0.000000      0.000000      0.000000
 -----------------------------------------------------------------------------------
    total drift:                                0.000000      0.000000     -0.000000


--------------------------------------------------------------------------------------------------------



  FREE ENERGIE OF THE ION-ELECTRON SYSTEM (eV)
  ---------------------------------------------------
  free  energy   TOTEN  =        -2.287275 eV

  energy  without entropy=       -2.286837  energy(sigma->0) =       -2.287056
 
 d Force = 0.0000000E+00[ 0.000E+00, 0.000E+00]  d Energy = 0.1850137E-04-0.185E-04
 d Force = 0.0000000E+00[ 0.000E+00, 0.000E+00]  d Ewald  = 0.9169068E-02-0.917E-02


--------------------------------------------------------------------------------------------------------


    POTLOK:  cpu time    0.00: real time    0.01


--------------------------------------------------------------------------------------------------------


 Steepest descent step on ions:
 trial-energy change:   -0.000019  1 .order   -0.000022   -0.000026   -0.000018
  (g-gl).g = 0.258E-04      g.g   = 0.258E-04  gl.gl    = 0.000E+00
 g(Force)  = 0.000E+00   g(Stress)= 0.258E-04 ortho     = 0.000E+00
 gamma     =   0.00000
 trial     =   1.00000
 opt step  =   3.15585  (harmonic =   3.15585) maximal distance =0.00000000
 next E    =    -2.287297   (d E  =  -0.00004)


--------------------------------------------------------------------------------------------------------


  
 reached required accuracy - stopping structural energy minimisation
     LOOP+:  cpu time    0.62: real time    1.25
    4ORBIT:  cpu time    0.00: real time    0.00
 


 total charge     
 
# of ion     s       p       d       tot
----------------------------------------
  1        0.436   0.023   0.000   0.458
 

 total amount of memory used by VASP on root node    30158. kBytes
========================================================================

   base      :      30000. kBytes
   nonlr-proj:         34. kBytes
   fftplans  :         22. kBytes
   grid      :         10. kBytes
   one-center:          1. kBytes
   wavefun   :         91. kBytes
 
  
  
 General timing and accounting informations for this job:
 ========================================================
  
                  Total CPU time used (sec):        3.448
                            User time (sec):        2.964
                          System time (sec):        0.485
                         Elapsed time (sec):        6.915
  
                   Maximum memory used (kb):       21660.
                   Average memory used (kb):           0.
  
                          Minor page faults:         4012
                          Major page faults:            0
                 Voluntary context switches:           25
