<?xml version="1.0" encoding="ISO-8859-1"?>
<modeling>
 <generator>
  <i name="program" type="string">vasp </i>
  <i name="version" type="string">5.2.12  </i>
  <i name="subversion" type="string">11Nov11 complex                                                      parallel </i>
  <i name="platform" type="string">LinuxIFC </i>
  <i name="date" type="string">2018 01 16 </i>
  <i name="time" type="string">21:15:37 </i>
 </generator>
 <incar>
  <i type="string" name="SYSTEM"> jump2</i>
  <i type="int" name="ISTART">     0</i>
  <i type="string" name="PREC">normal</i>
  <i type="string" name="ALGO"> 48</i>
  <i type="logical" name="ADDGRID"> T  </i>
  <i name="AMIN">      0.01000000</i>
  <i type="int" name="ICHARG">     2</i>
  <i type="int" name="IBRION">     2</i>
  <i name="EDIFF">      0.00001000</i>
  <i name="EDIFFG">     -0.01000000</i>
  <i type="int" name="NSW">    30</i>
  <i type="int" name="ISIF">     3</i>
  <i name="ENCUT">    325.00000000</i>
  <i type="string" name="LREAL"> Auto</i>
  <i type="logical" name="LPLANE"> T  </i>
  <i type="int" name="ISMEAR">     0</i>
  <i name="SIGMA">      0.10000000</i>
  <i name="KSPACING">      0.23000000</i>
  <i type="logical" name="LWAVE"> F  </i>
  <i type="logical" name="LCHARG"> T  </i>
  <i type="logical" name="LVTOT"> F  </i>
  <i type="logical" name="LVHAR"> F  </i>
  <i type="logical" name="LORBIT"> F  </i>
 </incar>
 <kpoints>
  <generation param="Gamma">
   <v type="int" name="divisions">      20       20       20 </v>
   <v name="usershift">      0.00000000       0.00000000       0.00000000 </v>
   <v name="genvec1">      0.05000000       0.00000000       0.00000000 </v>
   <v name="genvec2">      0.00000000       0.05000000       0.00000000 </v>
   <v name="genvec3">      0.00000000       0.00000000       0.05000000 </v>
   <v name="shift">      0.00000000       0.00000000       0.00000000 </v>
  </generation>
  <varray name="kpointlist" >
   <v>       0.00000000       0.00000000       0.00000000 </v>
   <v>       0.05000000       0.00000000       0.00000000 </v>
   <v>       0.10000000       0.00000000       0.00000000 </v>
   <v>       0.15000000       0.00000000       0.00000000 </v>
   <v>       0.20000000       0.00000000       0.00000000 </v>
   <v>       0.25000000       0.00000000       0.00000000 </v>
   <v>       0.30000000       0.00000000       0.00000000 </v>
   <v>       0.35000000       0.00000000       0.00000000 </v>
   <v>       0.40000000       0.00000000       0.00000000 </v>
   <v>       0.45000000       0.00000000       0.00000000 </v>
   <v>       0.50000000       0.00000000       0.00000000 </v>
   <v>       0.05000000       0.05000000       0.00000000 </v>
   <v>       0.10000000       0.05000000       0.00000000 </v>
   <v>       0.15000000       0.05000000       0.00000000 </v>
   <v>       0.20000000       0.05000000       0.00000000 </v>
   <v>       0.25000000       0.05000000       0.00000000 </v>
   <v>       0.30000000       0.05000000       0.00000000 </v>
   <v>       0.35000000       0.05000000       0.00000000 </v>
   <v>       0.40000000       0.05000000       0.00000000 </v>
   <v>       0.45000000       0.05000000       0.00000000 </v>
   <v>       0.50000000       0.05000000       0.00000000 </v>
   <v>       0.10000000       0.10000000       0.00000000 </v>
   <v>       0.15000000       0.10000000       0.00000000 </v>
   <v>       0.20000000       0.10000000       0.00000000 </v>
   <v>       0.25000000       0.10000000       0.00000000 </v>
   <v>       0.30000000       0.10000000       0.00000000 </v>
   <v>       0.35000000       0.10000000       0.00000000 </v>
   <v>       0.40000000       0.10000000       0.00000000 </v>
   <v>       0.45000000       0.10000000       0.00000000 </v>
   <v>       0.50000000       0.10000000       0.00000000 </v>
   <v>       0.15000000       0.15000000       0.00000000 </v>
   <v>       0.20000000       0.15000000       0.00000000 </v>
   <v>       0.25000000       0.15000000       0.00000000 </v>
   <v>       0.30000000       0.15000000       0.00000000 </v>
   <v>       0.35000000       0.15000000       0.00000000 </v>
   <v>       0.40000000       0.15000000       0.00000000 </v>
   <v>       0.45000000       0.15000000       0.00000000 </v>
   <v>       0.50000000       0.15000000       0.00000000 </v>
   <v>       0.20000000       0.20000000       0.00000000 </v>
   <v>       0.25000000       0.20000000       0.00000000 </v>
   <v>       0.30000000       0.20000000       0.00000000 </v>
   <v>       0.35000000       0.20000000       0.00000000 </v>
   <v>       0.40000000       0.20000000       0.00000000 </v>
   <v>       0.45000000       0.20000000       0.00000000 </v>
   <v>       0.50000000       0.20000000       0.00000000 </v>
   <v>       0.25000000       0.25000000       0.00000000 </v>
   <v>       0.30000000       0.25000000       0.00000000 </v>
   <v>       0.35000000       0.25000000       0.00000000 </v>
   <v>       0.40000000       0.25000000       0.00000000 </v>
   <v>       0.45000000       0.25000000       0.00000000 </v>
   <v>       0.50000000       0.25000000       0.00000000 </v>
   <v>       0.30000000       0.30000000       0.00000000 </v>
   <v>       0.35000000       0.30000000       0.00000000 </v>
   <v>       0.40000000       0.30000000       0.00000000 </v>
   <v>       0.45000000       0.30000000       0.00000000 </v>
   <v>       0.50000000       0.30000000       0.00000000 </v>
   <v>       0.35000000       0.35000000       0.00000000 </v>
   <v>       0.40000000       0.35000000       0.00000000 </v>
   <v>       0.45000000       0.35000000       0.00000000 </v>
   <v>       0.50000000       0.35000000       0.00000000 </v>
   <v>       0.40000000       0.40000000       0.00000000 </v>
   <v>       0.45000000       0.40000000       0.00000000 </v>
   <v>       0.50000000       0.40000000       0.00000000 </v>
   <v>       0.45000000       0.45000000       0.00000000 </v>
   <v>       0.50000000       0.45000000       0.00000000 </v>
   <v>       0.50000000       0.50000000       0.00000000 </v>
   <v>       0.05000000       0.05000000       0.05000000 </v>
   <v>       0.10000000       0.05000000       0.05000000 </v>
   <v>       0.15000000       0.05000000       0.05000000 </v>
   <v>       0.20000000       0.05000000       0.05000000 </v>
   <v>       0.25000000       0.05000000       0.05000000 </v>
   <v>       0.30000000       0.05000000       0.05000000 </v>
   <v>       0.35000000       0.05000000       0.05000000 </v>
   <v>       0.40000000       0.05000000       0.05000000 </v>
   <v>       0.45000000       0.05000000       0.05000000 </v>
   <v>       0.50000000       0.05000000       0.05000000 </v>
   <v>       0.10000000       0.10000000       0.05000000 </v>
   <v>       0.15000000       0.10000000       0.05000000 </v>
   <v>       0.20000000       0.10000000       0.05000000 </v>
   <v>       0.25000000       0.10000000       0.05000000 </v>
   <v>       0.30000000       0.10000000       0.05000000 </v>
   <v>       0.35000000       0.10000000       0.05000000 </v>
   <v>       0.40000000       0.10000000       0.05000000 </v>
   <v>       0.45000000       0.10000000       0.05000000 </v>
   <v>       0.50000000       0.10000000       0.05000000 </v>
   <v>       0.15000000       0.15000000       0.05000000 </v>
   <v>       0.20000000       0.15000000       0.05000000 </v>
   <v>       0.25000000       0.15000000       0.05000000 </v>
   <v>       0.30000000       0.15000000       0.05000000 </v>
   <v>       0.35000000       0.15000000       0.05000000 </v>
   <v>       0.40000000       0.15000000       0.05000000 </v>
   <v>       0.45000000       0.15000000       0.05000000 </v>
   <v>       0.50000000       0.15000000       0.05000000 </v>
   <v>       0.20000000       0.20000000       0.05000000 </v>
   <v>       0.25000000       0.20000000       0.05000000 </v>
   <v>       0.30000000       0.20000000       0.05000000 </v>
   <v>       0.35000000       0.20000000       0.05000000 </v>
   <v>       0.40000000       0.20000000       0.05000000 </v>
   <v>       0.45000000       0.20000000       0.05000000 </v>
   <v>       0.50000000       0.20000000       0.05000000 </v>
   <v>       0.25000000       0.25000000       0.05000000 </v>
   <v>       0.30000000       0.25000000       0.05000000 </v>
   <v>       0.35000000       0.25000000       0.05000000 </v>
   <v>       0.40000000       0.25000000       0.05000000 </v>
   <v>       0.45000000       0.25000000       0.05000000 </v>
   <v>       0.50000000       0.25000000       0.05000000 </v>
   <v>       0.30000000       0.30000000       0.05000000 </v>
   <v>       0.35000000       0.30000000       0.05000000 </v>
   <v>       0.40000000       0.30000000       0.05000000 </v>
   <v>       0.45000000       0.30000000       0.05000000 </v>
   <v>       0.50000000       0.30000000       0.05000000 </v>
   <v>       0.35000000       0.35000000       0.05000000 </v>
   <v>       0.40000000       0.35000000       0.05000000 </v>
   <v>       0.45000000       0.35000000       0.05000000 </v>
   <v>       0.50000000       0.35000000       0.05000000 </v>
   <v>       0.40000000       0.40000000       0.05000000 </v>
   <v>       0.45000000       0.40000000       0.05000000 </v>
   <v>       0.50000000       0.40000000       0.05000000 </v>
   <v>       0.45000000       0.45000000       0.05000000 </v>
   <v>       0.50000000       0.45000000       0.05000000 </v>
   <v>       0.50000000       0.50000000       0.05000000 </v>
   <v>       0.10000000       0.10000000       0.10000000 </v>
   <v>       0.15000000       0.10000000       0.10000000 </v>
   <v>       0.20000000       0.10000000       0.10000000 </v>
   <v>       0.25000000       0.10000000       0.10000000 </v>
   <v>       0.30000000       0.10000000       0.10000000 </v>
   <v>       0.35000000       0.10000000       0.10000000 </v>
   <v>       0.40000000       0.10000000       0.10000000 </v>
   <v>       0.45000000       0.10000000       0.10000000 </v>
   <v>       0.50000000       0.10000000       0.10000000 </v>
   <v>       0.15000000       0.15000000       0.10000000 </v>
   <v>       0.20000000       0.15000000       0.10000000 </v>
   <v>       0.25000000       0.15000000       0.10000000 </v>
   <v>       0.30000000       0.15000000       0.10000000 </v>
   <v>       0.35000000       0.15000000       0.10000000 </v>
   <v>       0.40000000       0.15000000       0.10000000 </v>
   <v>       0.45000000       0.15000000       0.10000000 </v>
   <v>       0.50000000       0.15000000       0.10000000 </v>
   <v>       0.20000000       0.20000000       0.10000000 </v>
   <v>       0.25000000       0.20000000       0.10000000 </v>
   <v>       0.30000000       0.20000000       0.10000000 </v>
   <v>       0.35000000       0.20000000       0.10000000 </v>
   <v>       0.40000000       0.20000000       0.10000000 </v>
   <v>       0.45000000       0.20000000       0.10000000 </v>
   <v>       0.50000000       0.20000000       0.10000000 </v>
   <v>       0.25000000       0.25000000       0.10000000 </v>
   <v>       0.30000000       0.25000000       0.10000000 </v>
   <v>       0.35000000       0.25000000       0.10000000 </v>
   <v>       0.40000000       0.25000000       0.10000000 </v>
   <v>       0.45000000       0.25000000       0.10000000 </v>
   <v>       0.50000000       0.25000000       0.10000000 </v>
   <v>       0.30000000       0.30000000       0.10000000 </v>
   <v>       0.35000000       0.30000000       0.10000000 </v>
   <v>       0.40000000       0.30000000       0.10000000 </v>
   <v>       0.45000000       0.30000000       0.10000000 </v>
   <v>       0.50000000       0.30000000       0.10000000 </v>
   <v>       0.35000000       0.35000000       0.10000000 </v>
   <v>       0.40000000       0.35000000       0.10000000 </v>
   <v>       0.45000000       0.35000000       0.10000000 </v>
   <v>       0.50000000       0.35000000       0.10000000 </v>
   <v>       0.40000000       0.40000000       0.10000000 </v>
   <v>       0.45000000       0.40000000       0.10000000 </v>
   <v>       0.50000000       0.40000000       0.10000000 </v>
   <v>       0.45000000       0.45000000       0.10000000 </v>
   <v>       0.50000000       0.45000000       0.10000000 </v>
   <v>       0.50000000       0.50000000       0.10000000 </v>
   <v>       0.15000000       0.15000000       0.15000000 </v>
   <v>       0.20000000       0.15000000       0.15000000 </v>
   <v>       0.25000000       0.15000000       0.15000000 </v>
   <v>       0.30000000       0.15000000       0.15000000 </v>
   <v>       0.35000000       0.15000000       0.15000000 </v>
   <v>       0.40000000       0.15000000       0.15000000 </v>
   <v>       0.45000000       0.15000000       0.15000000 </v>
   <v>       0.50000000       0.15000000       0.15000000 </v>
   <v>       0.20000000       0.20000000       0.15000000 </v>
   <v>       0.25000000       0.20000000       0.15000000 </v>
   <v>       0.30000000       0.20000000       0.15000000 </v>
   <v>       0.35000000       0.20000000       0.15000000 </v>
   <v>       0.40000000       0.20000000       0.15000000 </v>
   <v>       0.45000000       0.20000000       0.15000000 </v>
   <v>       0.50000000       0.20000000       0.15000000 </v>
   <v>       0.25000000       0.25000000       0.15000000 </v>
   <v>       0.30000000       0.25000000       0.15000000 </v>
   <v>       0.35000000       0.25000000       0.15000000 </v>
   <v>       0.40000000       0.25000000       0.15000000 </v>
   <v>       0.45000000       0.25000000       0.15000000 </v>
   <v>       0.50000000       0.25000000       0.15000000 </v>
   <v>       0.30000000       0.30000000       0.15000000 </v>
   <v>       0.35000000       0.30000000       0.15000000 </v>
   <v>       0.40000000       0.30000000       0.15000000 </v>
   <v>       0.45000000       0.30000000       0.15000000 </v>
   <v>       0.50000000       0.30000000       0.15000000 </v>
   <v>       0.35000000       0.35000000       0.15000000 </v>
   <v>       0.40000000       0.35000000       0.15000000 </v>
   <v>       0.45000000       0.35000000       0.15000000 </v>
   <v>       0.50000000       0.35000000       0.15000000 </v>
   <v>       0.40000000       0.40000000       0.15000000 </v>
   <v>       0.45000000       0.40000000       0.15000000 </v>
   <v>       0.50000000       0.40000000       0.15000000 </v>
   <v>       0.45000000       0.45000000       0.15000000 </v>
   <v>       0.50000000       0.45000000       0.15000000 </v>
   <v>       0.50000000       0.50000000       0.15000000 </v>
   <v>       0.20000000       0.20000000       0.20000000 </v>
   <v>       0.25000000       0.20000000       0.20000000 </v>
   <v>       0.30000000       0.20000000       0.20000000 </v>
   <v>       0.35000000       0.20000000       0.20000000 </v>
   <v>       0.40000000       0.20000000       0.20000000 </v>
   <v>       0.45000000       0.20000000       0.20000000 </v>
   <v>       0.50000000       0.20000000       0.20000000 </v>
   <v>       0.25000000       0.25000000       0.20000000 </v>
   <v>       0.30000000       0.25000000       0.20000000 </v>
   <v>       0.35000000       0.25000000       0.20000000 </v>
   <v>       0.40000000       0.25000000       0.20000000 </v>
   <v>       0.45000000       0.25000000       0.20000000 </v>
   <v>       0.50000000       0.25000000       0.20000000 </v>
   <v>       0.30000000       0.30000000       0.20000000 </v>
   <v>       0.35000000       0.30000000       0.20000000 </v>
   <v>       0.40000000       0.30000000       0.20000000 </v>
   <v>       0.45000000       0.30000000       0.20000000 </v>
   <v>       0.50000000       0.30000000       0.20000000 </v>
   <v>       0.35000000       0.35000000       0.20000000 </v>
   <v>       0.40000000       0.35000000       0.20000000 </v>
   <v>       0.45000000       0.35000000       0.20000000 </v>
   <v>       0.50000000       0.35000000       0.20000000 </v>
   <v>       0.40000000       0.40000000       0.20000000 </v>
   <v>       0.45000000       0.40000000       0.20000000 </v>
   <v>       0.50000000       0.40000000       0.20000000 </v>
   <v>       0.45000000       0.45000000       0.20000000 </v>
   <v>       0.50000000       0.45000000       0.20000000 </v>
   <v>       0.50000000       0.50000000       0.20000000 </v>
   <v>       0.25000000       0.25000000       0.25000000 </v>
   <v>       0.30000000       0.25000000       0.25000000 </v>
   <v>       0.35000000       0.25000000       0.25000000 </v>
   <v>       0.40000000       0.25000000       0.25000000 </v>
   <v>       0.45000000       0.25000000       0.25000000 </v>
   <v>       0.50000000       0.25000000       0.25000000 </v>
   <v>       0.30000000       0.30000000       0.25000000 </v>
   <v>       0.35000000       0.30000000       0.25000000 </v>
   <v>       0.40000000       0.30000000       0.25000000 </v>
   <v>       0.45000000       0.30000000       0.25000000 </v>
   <v>       0.50000000       0.30000000       0.25000000 </v>
   <v>       0.35000000       0.35000000       0.25000000 </v>
   <v>       0.40000000       0.35000000       0.25000000 </v>
   <v>       0.45000000       0.35000000       0.25000000 </v>
   <v>       0.50000000       0.35000000       0.25000000 </v>
   <v>       0.40000000       0.40000000       0.25000000 </v>
   <v>       0.45000000       0.40000000       0.25000000 </v>
   <v>       0.50000000       0.40000000       0.25000000 </v>
   <v>       0.45000000       0.45000000       0.25000000 </v>
   <v>       0.50000000       0.45000000       0.25000000 </v>
   <v>       0.50000000       0.50000000       0.25000000 </v>
   <v>       0.30000000       0.30000000       0.30000000 </v>
   <v>       0.35000000       0.30000000       0.30000000 </v>
   <v>       0.40000000       0.30000000       0.30000000 </v>
   <v>       0.45000000       0.30000000       0.30000000 </v>
   <v>       0.50000000       0.30000000       0.30000000 </v>
   <v>       0.35000000       0.35000000       0.30000000 </v>
   <v>       0.40000000       0.35000000       0.30000000 </v>
   <v>       0.45000000       0.35000000       0.30000000 </v>
   <v>       0.50000000       0.35000000       0.30000000 </v>
   <v>       0.40000000       0.40000000       0.30000000 </v>
   <v>       0.45000000       0.40000000       0.30000000 </v>
   <v>       0.50000000       0.40000000       0.30000000 </v>
   <v>       0.45000000       0.45000000       0.30000000 </v>
   <v>       0.50000000       0.45000000       0.30000000 </v>
   <v>       0.50000000       0.50000000       0.30000000 </v>
   <v>       0.35000000       0.35000000       0.35000000 </v>
   <v>       0.40000000       0.35000000       0.35000000 </v>
   <v>       0.45000000       0.35000000       0.35000000 </v>
   <v>       0.50000000       0.35000000       0.35000000 </v>
   <v>       0.40000000       0.40000000       0.35000000 </v>
   <v>       0.45000000       0.40000000       0.35000000 </v>
   <v>       0.50000000       0.40000000       0.35000000 </v>
   <v>       0.45000000       0.45000000       0.35000000 </v>
   <v>       0.50000000       0.45000000       0.35000000 </v>
   <v>       0.50000000       0.50000000       0.35000000 </v>
   <v>       0.40000000       0.40000000       0.40000000 </v>
   <v>       0.45000000       0.40000000       0.40000000 </v>
   <v>       0.50000000       0.40000000       0.40000000 </v>
   <v>       0.45000000       0.45000000       0.40000000 </v>
   <v>       0.50000000       0.45000000       0.40000000 </v>
   <v>       0.50000000       0.50000000       0.40000000 </v>
   <v>       0.45000000       0.45000000       0.45000000 </v>
   <v>       0.50000000       0.45000000       0.45000000 </v>
   <v>       0.50000000       0.50000000       0.45000000 </v>
   <v>       0.50000000       0.50000000       0.50000000 </v>
  </varray>
  <varray name="weights" >
   <v>       0.00012500 </v>
   <v>       0.00075000 </v>
   <v>       0.00075000 </v>
   <v>       0.00075000 </v>
   <v>       0.00075000 </v>
   <v>       0.00075000 </v>
   <v>       0.00075000 </v>
   <v>       0.00075000 </v>
   <v>       0.00075000 </v>
   <v>       0.00075000 </v>
   <v>       0.00037500 </v>
   <v>       0.00150000 </v>
   <v>       0.00300000 </v>
   <v>       0.00300000 </v>
   <v>       0.00300000 </v>
   <v>       0.00300000 </v>
   <v>       0.00300000 </v>
   <v>       0.00300000 </v>
   <v>       0.00300000 </v>
   <v>       0.00300000 </v>
   <v>       0.00150000 </v>
   <v>       0.00150000 </v>
   <v>       0.00300000 </v>
   <v>       0.00300000 </v>
   <v>       0.00300000 </v>
   <v>       0.00300000 </v>
   <v>       0.00300000 </v>
   <v>       0.00300000 </v>
   <v>       0.00300000 </v>
   <v>       0.00150000 </v>
   <v>       0.00150000 </v>
   <v>       0.00300000 </v>
   <v>       0.00300000 </v>
   <v>       0.00300000 </v>
   <v>       0.00300000 </v>
   <v>       0.00300000 </v>
   <v>       0.00300000 </v>
   <v>       0.00150000 </v>
   <v>       0.00150000 </v>
   <v>       0.00300000 </v>
   <v>       0.00300000 </v>
   <v>       0.00300000 </v>
   <v>       0.00300000 </v>
   <v>       0.00300000 </v>
   <v>       0.00150000 </v>
   <v>       0.00150000 </v>
   <v>       0.00300000 </v>
   <v>       0.00300000 </v>
   <v>       0.00300000 </v>
   <v>       0.00300000 </v>
   <v>       0.00150000 </v>
   <v>       0.00150000 </v>
   <v>       0.00300000 </v>
   <v>       0.00300000 </v>
   <v>       0.00300000 </v>
   <v>       0.00150000 </v>
   <v>       0.00150000 </v>
   <v>       0.00300000 </v>
   <v>       0.00300000 </v>
   <v>       0.00150000 </v>
   <v>       0.00150000 </v>
   <v>       0.00300000 </v>
   <v>       0.00150000 </v>
   <v>       0.00150000 </v>
   <v>       0.00150000 </v>
   <v>       0.00037500 </v>
   <v>       0.00100000 </v>
   <v>       0.00300000 </v>
   <v>       0.00300000 </v>
   <v>       0.00300000 </v>
   <v>       0.00300000 </v>
   <v>       0.00300000 </v>
   <v>       0.00300000 </v>
   <v>       0.00300000 </v>
   <v>       0.00300000 </v>
   <v>       0.00150000 </v>
   <v>       0.00300000 </v>
   <v>       0.00600000 </v>
   <v>       0.00600000 </v>
   <v>       0.00600000 </v>
   <v>       0.00600000 </v>
   <v>       0.00600000 </v>
   <v>       0.00600000 </v>
   <v>       0.00600000 </v>
   <v>       0.00300000 </v>
   <v>       0.00300000 </v>
   <v>       0.00600000 </v>
   <v>       0.00600000 </v>
   <v>       0.00600000 </v>
   <v>       0.00600000 </v>
   <v>       0.00600000 </v>
   <v>       0.00600000 </v>
   <v>       0.00300000 </v>
   <v>       0.00300000 </v>
   <v>       0.00600000 </v>
   <v>       0.00600000 </v>
   <v>       0.00600000 </v>
   <v>       0.00600000 </v>
   <v>       0.00600000 </v>
   <v>       0.00300000 </v>
   <v>       0.00300000 </v>
   <v>       0.00600000 </v>
   <v>       0.00600000 </v>
   <v>       0.00600000 </v>
   <v>       0.00600000 </v>
   <v>       0.00300000 </v>
   <v>       0.00300000 </v>
   <v>       0.00600000 </v>
   <v>       0.00600000 </v>
   <v>       0.00600000 </v>
   <v>       0.00300000 </v>
   <v>       0.00300000 </v>
   <v>       0.00600000 </v>
   <v>       0.00600000 </v>
   <v>       0.00300000 </v>
   <v>       0.00300000 </v>
   <v>       0.00600000 </v>
   <v>       0.00300000 </v>
   <v>       0.00300000 </v>
   <v>       0.00300000 </v>
   <v>       0.00075000 </v>
   <v>       0.00100000 </v>
   <v>       0.00300000 </v>
   <v>       0.00300000 </v>
   <v>       0.00300000 </v>
   <v>       0.00300000 </v>
   <v>       0.00300000 </v>
   <v>       0.00300000 </v>
   <v>       0.00300000 </v>
   <v>       0.00150000 </v>
   <v>       0.00300000 </v>
   <v>       0.00600000 </v>
   <v>       0.00600000 </v>
   <v>       0.00600000 </v>
   <v>       0.00600000 </v>
   <v>       0.00600000 </v>
   <v>       0.00600000 </v>
   <v>       0.00300000 </v>
   <v>       0.00300000 </v>
   <v>       0.00600000 </v>
   <v>       0.00600000 </v>
   <v>       0.00600000 </v>
   <v>       0.00600000 </v>
   <v>       0.00600000 </v>
   <v>       0.00300000 </v>
   <v>       0.00300000 </v>
   <v>       0.00600000 </v>
   <v>       0.00600000 </v>
   <v>       0.00600000 </v>
   <v>       0.00600000 </v>
   <v>       0.00300000 </v>
   <v>       0.00300000 </v>
   <v>       0.00600000 </v>
   <v>       0.00600000 </v>
   <v>       0.00600000 </v>
   <v>       0.00300000 </v>
   <v>       0.00300000 </v>
   <v>       0.00600000 </v>
   <v>       0.00600000 </v>
   <v>       0.00300000 </v>
   <v>       0.00300000 </v>
   <v>       0.00600000 </v>
   <v>       0.00300000 </v>
   <v>       0.00300000 </v>
   <v>       0.00300000 </v>
   <v>       0.00075000 </v>
   <v>       0.00100000 </v>
   <v>       0.00300000 </v>
   <v>       0.00300000 </v>
   <v>       0.00300000 </v>
   <v>       0.00300000 </v>
   <v>       0.00300000 </v>
   <v>       0.00300000 </v>
   <v>       0.00150000 </v>
   <v>       0.00300000 </v>
   <v>       0.00600000 </v>
   <v>       0.00600000 </v>
   <v>       0.00600000 </v>
   <v>       0.00600000 </v>
   <v>       0.00600000 </v>
   <v>       0.00300000 </v>
   <v>       0.00300000 </v>
   <v>       0.00600000 </v>
   <v>       0.00600000 </v>
   <v>       0.00600000 </v>
   <v>       0.00600000 </v>
   <v>       0.00300000 </v>
   <v>       0.00300000 </v>
   <v>       0.00600000 </v>
   <v>       0.00600000 </v>
   <v>       0.00600000 </v>
   <v>       0.00300000 </v>
   <v>       0.00300000 </v>
   <v>       0.00600000 </v>
   <v>       0.00600000 </v>
   <v>       0.00300000 </v>
   <v>       0.00300000 </v>
   <v>       0.00600000 </v>
   <v>       0.00300000 </v>
   <v>       0.00300000 </v>
   <v>       0.00300000 </v>
   <v>       0.00075000 </v>
   <v>       0.00100000 </v>
   <v>       0.00300000 </v>
   <v>       0.00300000 </v>
   <v>       0.00300000 </v>
   <v>       0.00300000 </v>
   <v>       0.00300000 </v>
   <v>       0.00150000 </v>
   <v>       0.00300000 </v>
   <v>       0.00600000 </v>
   <v>       0.00600000 </v>
   <v>       0.00600000 </v>
   <v>       0.00600000 </v>
   <v>       0.00300000 </v>
   <v>       0.00300000 </v>
   <v>       0.00600000 </v>
   <v>       0.00600000 </v>
   <v>       0.00600000 </v>
   <v>       0.00300000 </v>
   <v>       0.00300000 </v>
   <v>       0.00600000 </v>
   <v>       0.00600000 </v>
   <v>       0.00300000 </v>
   <v>       0.00300000 </v>
   <v>       0.00600000 </v>
   <v>       0.00300000 </v>
   <v>       0.00300000 </v>
   <v>       0.00300000 </v>
   <v>       0.00075000 </v>
   <v>       0.00100000 </v>
   <v>       0.00300000 </v>
   <v>       0.00300000 </v>
   <v>       0.00300000 </v>
   <v>       0.00300000 </v>
   <v>       0.00150000 </v>
   <v>       0.00300000 </v>
   <v>       0.00600000 </v>
   <v>       0.00600000 </v>
   <v>       0.00600000 </v>
   <v>       0.00300000 </v>
   <v>       0.00300000 </v>
   <v>       0.00600000 </v>
   <v>       0.00600000 </v>
   <v>       0.00300000 </v>
   <v>       0.00300000 </v>
   <v>       0.00600000 </v>
   <v>       0.00300000 </v>
   <v>       0.00300000 </v>
   <v>       0.00300000 </v>
   <v>       0.00075000 </v>
   <v>       0.00100000 </v>
   <v>       0.00300000 </v>
   <v>       0.00300000 </v>
   <v>       0.00300000 </v>
   <v>       0.00150000 </v>
   <v>       0.00300000 </v>
   <v>       0.00600000 </v>
   <v>       0.00600000 </v>
   <v>       0.00300000 </v>
   <v>       0.00300000 </v>
   <v>       0.00600000 </v>
   <v>       0.00300000 </v>
   <v>       0.00300000 </v>
   <v>       0.00300000 </v>
   <v>       0.00075000 </v>
   <v>       0.00100000 </v>
   <v>       0.00300000 </v>
   <v>       0.00300000 </v>
   <v>       0.00150000 </v>
   <v>       0.00300000 </v>
   <v>       0.00600000 </v>
   <v>       0.00300000 </v>
   <v>       0.00300000 </v>
   <v>       0.00300000 </v>
   <v>       0.00075000 </v>
   <v>       0.00100000 </v>
   <v>       0.00300000 </v>
   <v>       0.00150000 </v>
   <v>       0.00300000 </v>
   <v>       0.00300000 </v>
   <v>       0.00075000 </v>
   <v>       0.00100000 </v>
   <v>       0.00150000 </v>
   <v>       0.00075000 </v>
   <v>       0.00012500 </v>
  </varray>
 </kpoints>
 <parameters>
  <separator name="general" >
   <i type="string" name="SYSTEM">jump2</i>
   <i type="logical" name="LCOMPAT"> F  </i>
  </separator>
  <separator name="electronic" >
   <i type="string" name="PREC">normal</i>
   <i name="ENMAX">    325.00000000</i>
   <i name="ENAUG">    400.00000000</i>
   <i name="EDIFF">      0.00001000</i>
   <i type="int" name="IALGO">    38</i>
   <i type="int" name="IWAVPR">    11</i>
   <i type="int" name="NBANDS">     4</i>
   <i name="NELECT">      1.00000000</i>
   <i type="int" name="TURBO">     0</i>
   <i type="int" name="IRESTART">     0</i>
   <i type="int" name="NREBOOT">     0</i>
   <i type="int" name="NMIN">     0</i>
   <i name="EREF">      0.00000000</i>
   <separator name="electronic smearing" >
    <i type="int" name="ISMEAR">     0</i>
    <i name="SIGMA">      0.10000000</i>
    <i name="KSPACING">      0.23000000</i>
    <i type="logical" name="KGAMMA"> T  </i>
   </separator>
   <separator name="electronic projectors" >
    <i type="logical" name="LREAL"> T  </i>
    <v name="ROPT">     -0.00050000</v>
    <i type="int" name="LMAXPAW">  -100</i>
    <i type="int" name="LMAXMIX">     2</i>
    <i type="logical" name="NLSPLINE"> F  </i>
   </separator>
   <separator name="electronic startup" >
    <i type="int" name="ISTART">     0</i>
    <i type="int" name="ICHARG">     2</i>
    <i type="int" name="INIWAV">     1</i>
   </separator>
   <separator name="electronic spin" >
    <i type="int" name="ISPIN">     1</i>
    <i type="logical" name="LNONCOLLINEAR"> F  </i>
    <v name="MAGMOM">      1.00000000</v>
    <i name="NUPDOWN">     -1.00000000</i>
    <i type="logical" name="LSORBIT"> F  </i>
    <v name="SAXIS">      0.00000000      0.00000000      1.00000000</v>
    <i type="logical" name="LSPIRAL"> F  </i>
    <v name="QSPIRAL">      0.00000000      0.00000000      0.00000000</v>
    <i type="logical" name="LZEROZ"> F  </i>
   </separator>
   <separator name="electronic exchange-correlation" >
    <i type="logical" name="LASPH"> F  </i>
    <i type="logical" name="LMETAGGA"> F  </i>
   </separator>
   <separator name="electronic convergence" >
    <i type="int" name="NELM">    60</i>
    <i type="int" name="NELMDL">    -5</i>
    <i type="int" name="NELMIN">     2</i>
    <i name="ENINI">    325.00000000</i>
    <separator name="electronic convergence detail" >
     <i type="logical" name="LDIAG"> T  </i>
     <i type="logical" name="LSUBROT"> T  </i>
     <i name="WEIMIN">      0.00100000</i>
     <i name="EBREAK">      0.00000063</i>
     <i name="DEPER">      0.30000000</i>
     <i type="int" name="NRMM">     4</i>
     <i name="TIME">      0.40000000</i>
    </separator>
   </separator>
   <separator name="electronic mixer" >
    <i name="AMIX">      0.40000000</i>
    <i name="BMIX">      1.00000000</i>
    <i name="AMIN">      0.01000000</i>
    <i name="AMIX_MAG">      1.60000000</i>
    <i name="BMIX_MAG">      1.00000000</i>
    <separator name="electronic mixer details" >
     <i type="int" name="IMIX">     4</i>
     <i type="int" name="MAXMIX">   -45</i>
     <i name="WC">    100.00000000</i>
     <i type="int" name="INIMIX">     1</i>
     <i type="int" name="MIXPRE">     1</i>
     <i type="int" name="MREMOVE">     5</i>
    </separator>
   </separator>
   <separator name="electronic dipolcorrection" >
    <i type="logical" name="LDIPOL"> F  </i>
    <i type="logical" name="LMONO"> F  </i>
    <i type="int" name="IDIPOL">     0</i>
    <i name="EPSILON">      1.00000000</i>
    <v name="DIPOL">   -100.00000000   -100.00000000   -100.00000000</v>
    <i name="EFIELD">      0.00000000</i>
   </separator>
  </separator>
  <separator name="grids" >
   <i type="int" name="NGX">     6</i>
   <i type="int" name="NGY">     6</i>
   <i type="int" name="NGZ">     6</i>
   <i type="int" name="NGXF">    12</i>
   <i type="int" name="NGYF">    12</i>
   <i type="int" name="NGZF">    12</i>
   <i type="logical" name="ADDGRID"> T  </i>
  </separator>
  <separator name="ionic" >
   <i type="int" name="NSW">    30</i>
   <i type="int" name="IBRION">     2</i>
   <i type="int" name="ISIF">     3</i>
   <i name="PSTRESS">      0.00000000</i>
   <i name="EDIFFG">     -0.01000000</i>
   <i type="int" name="NFREE">     1</i>
   <i name="POTIM">      0.50000000</i>
   <i name="SMASS">     -3.00000000</i>
   <i name="SCALEE">      1.00000000</i>
  </separator>
  <separator name="ionic md" >
   <i name="TEBEG">      0.00010000</i>
   <i name="TEEND">      0.00010000</i>
   <i type="int" name="NBLOCK">     1</i>
   <i type="int" name="KBLOCK">    30</i>
   <i type="int" name="NPACO">   256</i>
   <i name="APACO">     16.00000000</i>
  </separator>
  <separator name="symmetry" >
   <i type="int" name="ISYM">     2</i>
   <i name="SYMPREC">      0.00001000</i>
  </separator>
  <separator name="dos" >
   <i type="logical" name="LORBIT"> F  </i>
   <v name="RWIGS">     -1.00000000</v>
   <i type="int" name="NEDOS">   301</i>
   <i name="EMIN">     10.00000000</i>
   <i name="EMAX">    -10.00000000</i>
   <i name="EFERMI">      0.00000000</i>
  </separator>
  <separator name="writing" >
   <i type="int" name="NWRITE">     2</i>
   <i type="logical" name="LWAVE"> F  </i>
   <i type="logical" name="LCHARG"> T  </i>
   <i type="logical" name="LPARD"> F  </i>
   <i type="logical" name="LVTOT"> F  </i>
   <i type="logical" name="LVHAR"> F  </i>
   <i type="logical" name="LELF"> F  </i>
   <i type="logical" name="LOPTICS"> F  </i>
   <v name="STM">      0.00000000      0.00000000      0.00000000      0.00000000      0.00000000      0.00000000      0.00000000</v>
  </separator>
  <separator name="performance" >
   <i type="int" name="NPAR">     4</i>
   <i type="int" name="NSIM">     4</i>
   <i type="int" name="NBLK">    -1</i>
   <i type="logical" name="LPLANE"> T  </i>
   <i type="logical" name="LSCALAPACK"> T  </i>
   <i type="logical" name="LSCAAWARE"> F  </i>
   <i type="logical" name="LSCALU"> F  </i>
   <i type="logical" name="LASYNC"> F  </i>
   <i type="logical" name="LORBITALREAL"> F  </i>
  </separator>
  <separator name="miscellaneous" >
   <i type="int" name="IDIOT">     3</i>
   <i type="logical" name="LMUSIC"> F  </i>
   <v name="POMASS">      1.00000000</v>
   <v name="DARWINR">      0.00000000</v>
   <v name="DARWINV">      1.00000000</v>
   <i type="logical" name="LCORR"> T  </i>
  </separator>
  <i type="logical" name="GGA_COMPAT"> T  </i>
  <i type="logical" name="LBERRY"> F  </i>
  <i type="int" name="ICORELEVEL">     0</i>
  <i type="logical" name="LDAU"> F  </i>
  <i type="int" name="I_CONSTRAINED_M">     0</i>
  <separator name="electronic exchange-correlation" >
   <i type="string" name="GGA">--</i>
   <i type="int" name="VOSKOWN">     0</i>
   <i type="logical" name="LHFCALC"> F  </i>
   <i type="string" name="PRECFOCK"></i>
   <i type="logical" name="LHFONE"> F  </i>
   <i type="logical" name="LRHFCALC"> F  </i>
   <i type="logical" name="LTHOMAS"> F  </i>
   <i type="logical" name="LMODELHF"> F  </i>
   <i name="ENCUT4O">     -1.00000000</i>
   <i type="int" name="EXXOEP">     0</i>
   <i type="int" name="FOURORBIT">     0</i>
   <i name="AEXX">      0.00000000</i>
   <i name="HFALPHA">      0.00000000</i>
   <i name="ALDAX">      1.00000000</i>
   <i name="AGGAX">      1.00000000</i>
   <i name="ALDAC">      1.00000000</i>
   <i name="AGGAC">      1.00000000</i>
   <i type="int" name="NKREDX">     1</i>
   <i type="int" name="NKREDY">     1</i>
   <i type="int" name="NKREDZ">     1</i>
   <i type="logical" name="SHIFTRED"> F  </i>
   <i type="logical" name="ODDONLY"> F  </i>
   <i type="logical" name="EVENONLY"> F  </i>
   <i type="int" name="LMAXFOCK">     0</i>
   <i type="int" name="NMAXFOCKAE">     0</i>
   <i type="logical" name="LFOCKAEDFT"> F  </i>
   <i name="HFSCREEN">      0.00000000</i>
   <i name="HFSCREENC">      0.00000000</i>
  </separator>
  <separator name="vdW DFT" >
   <i type="logical" name="LUSE_VDW"> F  </i>
   <i name="Zab_VDW">     -0.84910000</i>
   <i name="PARAM1">      0.12340000</i>
   <i name="PARAM2">      1.00000000</i>
   <i name="PARAM3">      0.00000000</i>
  </separator>
  <separator name="model GW" >
   <i type="int" name="MODEL_GW">     0</i>
   <i name="MODEL_EPS0">      1.77776324</i>
   <i name="MODEL_ALPHA">      1.00000000</i>
  </separator>
  <separator name="linear response parameters" >
   <i type="logical" name="LEPSILON"> F  </i>
   <i type="logical" name="LRPA"> F  </i>
   <i type="logical" name="LNABLA"> F  </i>
   <i type="logical" name="LVEL"> F  </i>
   <i type="int" name="KINTER">     0</i>
   <i name="CSHIFT">      0.10000000</i>
   <i name="OMEGAMAX">     -1.00000000</i>
  </separator>
  <separator name="orbital magnetization" >
   <i type="logical" name="NUCIND"> F  </i>
   <v name="MAGPOS">      0.00000000      0.00000000      0.00000000</v>
   <i type="logical" name="LNICSALL"> T  </i>
   <i type="logical" name="ORBITALMAG"> F  </i>
   <i type="logical" name="LMAGBLOCH"> F  </i>
   <i type="logical" name="LCHIMAG"> F  </i>
   <i type="logical" name="LGAUGE"> T  </i>
   <i type="int" name="MAGATOM">     0</i>
   <v name="MAGDIPOL">      0.00000000      0.00000000      0.00000000</v>
   <v name="AVECCONST">      0.00000000      0.00000000      0.00000000</v>
  </separator>
  <separator name="response functions" >
   <i type="logical" name="LADDER"> F  </i>
   <i type="logical" name="LHARTREE"> T  </i>
   <i type="int" name="IBSE">     0</i>
   <i type="logical" name="LTCTE"> F  </i>
   <i type="logical" name="LTETE"> F  </i>
   <i type="logical" name="LFXCEPS"> F  </i>
   <i type="logical" name="L2ORDER"> F  </i>
   <i type="logical" name="LUSEW"> F  </i>
   <i name="ENCUTGW">     -2.00000000</i>
   <i name="ENCUTGWSOFT">     -2.00000000</i>
   <i name="ENCUTLF">     -1.00000000</i>
   <i type="int" name="LMAXMP2">    -1</i>
   <i name="SCISSOR">      0.00000000</i>
   <i type="int" name="NOMEGA">     0</i>
   <i type="int" name="NOMEGAR">     0</i>
   <i type="int" name="NBANDSGW">    -1</i>
   <i type="int" name="NBANDSO">    -1</i>
   <i type="int" name="NBANDSV">    -1</i>
   <i name="OPTEMAX">      0.00000000</i>
   <i type="int" name="NELM">     1</i>
   <i type="int" name="DIM">     3</i>
   <i type="int" name="ANTIRES">     0</i>
   <i name="OMEGAMAX">    -30.00000000</i>
   <i name="OMEGATL">   -200.00000000</i>
   <i type="int" name="OMEGAGRID">     0</i>
   <i name="CSHIFT">     -0.10000000</i>
   <i type="logical" name="SELFENERGY"> F  </i>
   <i type="logical" name="LSPECTRAL"> F  </i>
   <i type="logical" name="ODDONLYGW"> F  </i>
   <i type="logical" name="EVENONLYGW"> F  </i>
   <i type="int" name="NKREDLFX">     1</i>
   <i type="int" name="NKREDLFY">     1</i>
   <i type="int" name="NKREDLFZ">     1</i>
   <i type="int" name="MAXMEM">  1800</i>
   <i type="int" name="TELESCOPE">     0</i>
  </separator>
 </parameters>
 <atominfo>
  <atoms>       1 </atoms>
  <types>       1 </types>
  <array name="atoms" >
   <dimension dim="1">ion</dimension>
   <field type="string">element</field>
   <field type="int">atomtype</field>
   <set>
    <rc><c>H </c><c>   1</c></rc>
   </set>
  </array>
  <array name="atomtypes" >
   <dimension dim="1">type</dimension>
   <field type="int">atomspertype</field>
   <field type="string">element</field>
   <field>mass</field>
   <field>valence</field>
   <field type="string">pseudopotential</field>
   <set>
    <rc><c>   1</c><c>H </c><c>      1.00000000</c><c>      1.00000000</c><c> PAW_PBE H 15Jun2001                    </c></rc>
   </set>
  </array>
 </atominfo>
 <structure name="initialpos" >
  <crystal>
   <varray name="basis" >
    <v>       1.43628588       0.00000000       0.00000000 </v>
    <v>       0.00000000       1.43628588       0.00000000 </v>
    <v>       0.00000000       0.00000000       1.43628588 </v>
   </varray>
   <i name="volume">      2.96293874 </i>
   <varray name="rec_basis" >
    <v>       0.69624022       0.00000000       0.00000000 </v>
    <v>       0.00000000       0.69624022       0.00000000 </v>
    <v>       0.00000000       0.00000000       0.69624022 </v>
   </varray>
  </crystal>
  <varray name="positions" >
   <v>       0.00000000       0.00000000       0.00000000 </v>
  </varray>
 </structure>
 <calculation>
  <scstep>
   <time name="dav">    0.29    0.60</time>
   <time name="total">    0.30    0.60</time>
   <energy>
    <i name="alphaZ">      0.82222469 </i>
    <i name="ewald">    -14.22296237 </i>
    <i name="hartreedc">     -0.29899768 </i>
    <i name="XCdc">      2.74362672 </i>
    <i name="pawpsdc">      0.78132571 </i>
    <i name="pawaedc">     -0.79033343 </i>
    <i name="eentropy">     -0.00045272 </i>
    <i name="bandstr">     -3.76925283 </i>
    <i name="atom">     12.45896517 </i>
    <i name="e_fr_energy">     -2.27585674 </i>
    <i name="e_wo_entrp">     -2.27540403 </i>
    <i name="e_0_energy">     -2.27563038 </i>
   </energy>
  </scstep>
  <scstep>
   <time name="dav">    0.30    0.59</time>
   <time name="total">    0.30    0.62</time>
   <energy>
    <i name="e_fr_energy">     -2.28484936 </i>
    <i name="e_wo_entrp">     -2.28440728 </i>
    <i name="e_0_energy">     -2.28462832 </i>
   </energy>
  </scstep>
  <scstep>
   <time name="dav">    0.27    0.54</time>
   <time name="total">    0.27    0.55</time>
   <energy>
    <i name="e_fr_energy">     -2.28485006 </i>
    <i name="e_wo_entrp">     -2.28440797 </i>
    <i name="e_0_energy">     -2.28462902 </i>
   </energy>
  </scstep>
  <scstep>
   <time name="dav">    0.27    0.55</time>
   <time name="total">    0.27    0.55</time>
   <energy>
    <i name="e_fr_energy">     -2.28485006 </i>
    <i name="e_wo_entrp">     -2.28440797 </i>
    <i name="e_0_energy">     -2.28462902 </i>
   </energy>
  </scstep>
  <scstep>
   <time name="dav">    0.20    0.40</time>
   <time name="total">    0.20    0.41</time>
   <energy>
    <i name="e_fr_energy">     -2.28485006 </i>
    <i name="e_wo_entrp">     -2.28440797 </i>
    <i name="e_0_energy">     -2.28462902 </i>
   </energy>
  </scstep>
  <scstep>
   <time name="dav">    0.27    0.54</time>
   <time name="total">    0.28    0.55</time>
   <energy>
    <i name="e_fr_energy">     -2.32953161 </i>
    <i name="e_wo_entrp">     -2.32908341 </i>
    <i name="e_0_energy">     -2.32930751 </i>
   </energy>
  </scstep>
  <scstep>
   <time name="dav">    0.27    0.55</time>
   <time name="total">    0.28    0.56</time>
   <energy>
    <i name="e_fr_energy">     -2.28725700 </i>
    <i name="e_wo_entrp">     -2.28681857 </i>
    <i name="e_0_energy">     -2.28703778 </i>
   </energy>
  </scstep>
  <scstep>
   <time name="dav">    0.18    0.35</time>
   <time name="total">    0.18    0.36</time>
   <energy>
    <i name="alphaZ">      0.82222469 </i>
    <i name="ewald">    -14.22296237 </i>
    <i name="hartreedc">     -0.36096154 </i>
    <i name="XCdc">      2.75965987 </i>
    <i name="pawpsdc">      1.85242253 </i>
    <i name="pawaedc">     -1.86476841 </i>
    <i name="eentropy">     -0.00043839 </i>
    <i name="bandstr">     -3.73139831 </i>
    <i name="atom">     12.45896517 </i>
    <i name="e_fr_energy">     -2.28725675 </i>
    <i name="e_wo_entrp">     -2.28681836 </i>
    <i name="e_0_energy">     -2.28703755 </i>
   </energy>
  </scstep>
  <parameters_embedded>
   <separator name="dft+d2" >
    <i type="logical" name="LVDW"> F  </i>
   </separator>
  </parameters_embedded>
  <structure>
   <crystal>
    <varray name="basis" >
     <v>       1.43628588       0.00000000       0.00000000 </v>
     <v>       0.00000000       1.43628588       0.00000000 </v>
     <v>       0.00000000       0.00000000       1.43628588 </v>
    </varray>
    <i name="volume">      2.96293874 </i>
    <varray name="rec_basis" >
     <v>       0.69624022       0.00000000       0.00000000 </v>
     <v>       0.00000000       0.69624022       0.00000000 </v>
     <v>       0.00000000       0.00000000       0.69624022 </v>
    </varray>
   </crystal>
   <varray name="positions" >
    <v>       0.00000000       0.00000000       0.00000000 </v>
   </varray>
  </structure>
  <varray name="forces" >
   <v>       0.00000000       0.00000000       0.00000000 </v>
  </varray>
  <varray name="stress" >
   <v>      -7.22124321      -0.00000000       0.00000000 </v>
   <v>       0.00000000      -7.22124321      -0.00000000 </v>
   <v>       0.00000000       0.00000000      -7.22124321 </v>
  </varray>
  <energy>
   <i name="e_fr_energy">     -2.28725675 </i>
   <i name="e_wo_entrp">     -2.28703755 </i>
   <i name="e_0_energy">     -0.00043839 </i>
  </energy>
  <time name="totalsc">    2.35    4.71</time>
 </calculation>
 <calculation>
  <scstep>
   <time name="dav">    0.24    0.49</time>
   <time name="total">    0.25    0.50</time>
   <energy>
    <i name="alphaZ">      0.82381590 </i>
    <i name="ewald">    -14.23213143 </i>
    <i name="hartreedc">     -0.36105184 </i>
    <i name="XCdc">      2.76129397 </i>
    <i name="pawpsdc">      1.81341648 </i>
    <i name="pawaedc">     -1.82564748 </i>
    <i name="eentropy">     -0.00043828 </i>
    <i name="bandstr">     -3.72549757 </i>
    <i name="atom">     12.45896517 </i>
    <i name="e_fr_energy">     -2.28727508 </i>
    <i name="e_wo_entrp">     -2.28683681 </i>
    <i name="e_0_energy">     -2.28705595 </i>
   </energy>
  </scstep>
  <scstep>
   <time name="dav">    0.15    0.30</time>
   <time name="total">    0.15    0.31</time>
   <energy>
    <i name="alphaZ">      0.82381590 </i>
    <i name="ewald">    -14.23213143 </i>
    <i name="hartreedc">     -0.36080110 </i>
    <i name="XCdc">      2.76123157 </i>
    <i name="pawpsdc">      1.81534907 </i>
    <i name="pawaedc">     -1.82758915 </i>
    <i name="eentropy">     -0.00043828 </i>
    <i name="bandstr">     -3.72567700 </i>
    <i name="atom">     12.45896517 </i>
    <i name="e_fr_energy">     -2.28727525 </i>
    <i name="e_wo_entrp">     -2.28683697 </i>
    <i name="e_0_energy">     -2.28705611 </i>
   </energy>
  </scstep>
  <structure>
   <crystal>
    <varray name="basis" >
     <v>       1.43536055      -0.00000000       0.00000000 </v>
     <v>       0.00000000       1.43536055      -0.00000000 </v>
     <v>       0.00000000       0.00000000       1.43536055 </v>
    </varray>
    <i name="volume">      2.95721580 </i>
    <varray name="rec_basis" >
     <v>       0.69668907      -0.00000000      -0.00000000 </v>
     <v>       0.00000000       0.69668907      -0.00000000 </v>
     <v>      -0.00000000       0.00000000       0.69668907 </v>
    </varray>
   </crystal>
   <varray name="positions" >
    <v>       0.00000000       0.00000000       0.00000000 </v>
   </varray>
  </structure>
  <varray name="forces" >
   <v>       0.00000000       0.00000000       0.00000000 </v>
  </varray>
  <varray name="stress" >
   <v>      -4.94258130      -0.00000000      -0.00000000 </v>
   <v>      -0.00000000      -4.94258130       0.00000000 </v>
   <v>      -0.00000000       0.00000000      -4.94258130 </v>
  </varray>
  <energy>
   <i name="e_fr_energy">     -2.28727525 </i>
   <i name="e_wo_entrp">     -2.28705611 </i>
   <i name="e_0_energy">     -0.00043828 </i>
  </energy>
  <time name="totalsc">    0.62    1.25</time>
  <eigenvalues>
   <array>
    <dimension dim="1">band</dimension>
    <dimension dim="2">kpoint</dimension>
    <dimension dim="3">spin</dimension>
    <field>eigene</field>
    <field>occ</field>
    <set>
     <set comment="spin 1">
      <set comment="kpoint 1">
       <r>  -13.6034    1.0000 </r>
       <r>   50.1433    0.0000 </r>
       <r>   61.6068    0.0000 </r>
       <r>   61.6068    0.0000 </r>
      </set>
      <set comment="kpoint 2">
       <r>  -13.4272    1.0000 </r>
       <r>   48.7007    0.0000 </r>
       <r>   57.9535    0.0000 </r>
       <r>   61.7879    0.0000 </r>
      </set>
      <set comment="kpoint 3">
       <r>  -12.8993    1.0000 </r>
       <r>   44.4220    0.0000 </r>
       <r>   56.4598    0.0000 </r>
       <r>   62.3308    0.0000 </r>
      </set>
      <set comment="kpoint 4">
       <r>  -12.0256    1.0000 </r>
       <r>   38.8984    0.0000 </r>
       <r>   56.6554    0.0000 </r>
       <r>   63.2334    0.0000 </r>
      </set>
      <set comment="kpoint 5">
       <r>  -10.8044    1.0000 </r>
       <r>   33.3235    0.0000 </r>
       <r>   57.5556    0.0000 </r>
       <r>   64.4966    0.0000 </r>
      </set>
      <set comment="kpoint 6">
       <r>   -9.2472    1.0000 </r>
       <r>   27.9629    0.0000 </r>
       <r>   58.8856    0.0000 </r>
       <r>   66.1161    0.0000 </r>
      </set>
      <set comment="kpoint 7">
       <r>   -7.3711    1.0000 </r>
       <r>   22.9295    0.0000 </r>
       <r>   60.5324    0.0000 </r>
       <r>   68.0853    0.0000 </r>
      </set>
      <set comment="kpoint 8">
       <r>   -5.2213    1.0000 </r>
       <r>   18.2886    0.0000 </r>
       <r>   62.3560    0.0000 </r>
       <r>   70.3766    0.0000 </r>
      </set>
      <set comment="kpoint 9">
       <r>   -2.8802    1.0000 </r>
       <r>   14.1730    0.0000 </r>
       <r>   64.2594    0.0000 </r>
       <r>   72.9702    0.0000 </r>
      </set>
      <set comment="kpoint 10">
       <r>   -0.6688    1.0000 </r>
       <r>   10.8728    0.0000 </r>
       <r>   65.8254    0.0000 </r>
       <r>   75.6746    0.0000 </r>
      </set>
      <set comment="kpoint 11">
       <r>    0.4316    1.0000 </r>
       <r>    9.4161    0.0000 </r>
       <r>   66.4910    0.0000 </r>
       <r>   77.3393    0.0000 </r>
      </set>
      <set comment="kpoint 12">
       <r>  -13.2510    1.0000 </r>
       <r>   47.8285    0.0000 </r>
       <r>   55.5977    0.0000 </r>
       <r>   60.4253    0.0000 </r>
      </set>
      <set comment="kpoint 13">
       <r>  -12.7231    1.0000 </r>
       <r>   44.3126    0.0000 </r>
       <r>   53.6239    0.0000 </r>
       <r>   60.7231    0.0000 </r>
      </set>
      <set comment="kpoint 14">
       <r>  -11.8481    1.0000 </r>
       <r>   39.0082    0.0000 </r>
       <r>   53.6899    0.0000 </r>
       <r>   61.5599    0.0000 </r>
      </set>
      <set comment="kpoint 15">
       <r>  -10.6302    1.0000 </r>
       <r>   33.4671    0.0000 </r>
       <r>   54.5868    0.0000 </r>
       <r>   62.7735    0.0000 </r>
      </set>
      <set comment="kpoint 16">
       <r>   -9.0734    1.0000 </r>
       <r>   28.1236    0.0000 </r>
       <r>   55.9651    0.0000 </r>
       <r>   64.3397    0.0000 </r>
      </set>
      <set comment="kpoint 17">
       <r>   -7.1979    1.0000 </r>
       <r>   23.0976    0.0000 </r>
       <r>   57.6932    0.0000 </r>
       <r>   66.2376    0.0000 </r>
      </set>
      <set comment="kpoint 18">
       <r>   -5.0452    1.0000 </r>
       <r>   18.4654    0.0000 </r>
       <r>   59.6698    0.0000 </r>
       <r>   68.4234    0.0000 </r>
      </set>
      <set comment="kpoint 19">
       <r>   -2.7047    1.0000 </r>
       <r>   14.3521    0.0000 </r>
       <r>   61.7658    0.0000 </r>
       <r>   70.8447    0.0000 </r>
      </set>
      <set comment="kpoint 20">
       <r>   -0.4895    1.0000 </r>
       <r>   11.0592    0.0000 </r>
       <r>   63.5987    0.0000 </r>
       <r>   73.2868    0.0000 </r>
      </set>
      <set comment="kpoint 21">
       <r>    0.6015    1.0000 </r>
       <r>    9.5978    0.0000 </r>
       <r>   64.4030    0.0000 </r>
       <r>   75.3087    0.0000 </r>
      </set>
      <set comment="kpoint 22">
       <r>  -12.1985    1.0000 </r>
       <r>   43.1668    0.0000 </r>
       <r>   49.4213    0.0000 </r>
       <r>   60.8465    0.0000 </r>
      </set>
      <set comment="kpoint 23">
       <r>  -11.3226    1.0000 </r>
       <r>   39.1597    0.0000 </r>
       <r>   48.2570    0.0000 </r>
       <r>   61.6226    0.0000 </r>
      </set>
      <set comment="kpoint 24">
       <r>  -10.1037    1.0000 </r>
       <r>   33.8819    0.0000 </r>
       <r>   48.9465    0.0000 </r>
       <r>   62.7927    0.0000 </r>
      </set>
      <set comment="kpoint 25">
       <r>   -8.5450    1.0000 </r>
       <r>   28.6087    0.0000 </r>
       <r>   50.3045    0.0000 </r>
       <r>   64.3132    0.0000 </r>
      </set>
      <set comment="kpoint 26">
       <r>   -6.6708    1.0000 </r>
       <r>   23.6085    0.0000 </r>
       <r>   52.0756    0.0000 </r>
       <r>   66.1290    0.0000 </r>
      </set>
      <set comment="kpoint 27">
       <r>   -4.5201    1.0000 </r>
       <r>   18.9891    0.0000 </r>
       <r>   54.1536    0.0000 </r>
       <r>   68.1371    0.0000 </r>
      </set>
      <set comment="kpoint 28">
       <r>   -2.1865    1.0000 </r>
       <r>   14.8758    0.0000 </r>
       <r>   56.4128    0.0000 </r>
       <r>   69.9687    0.0000 </r>
      </set>
      <set comment="kpoint 29">
       <r>    0.0266    1.0000 </r>
       <r>   11.5987    0.0000 </r>
       <r>   58.5367    0.0000 </r>
       <r>   69.6836    0.0000 </r>
      </set>
      <set comment="kpoint 30">
       <r>    1.1337    1.0000 </r>
       <r>   10.1473    0.0000 </r>
       <r>   59.5728    0.0000 </r>
       <r>   68.6604    0.0000 </r>
      </set>
      <set comment="kpoint 31">
       <r>  -10.4474    1.0000 </r>
       <r>   38.3192    0.0000 </r>
       <r>   43.9435    0.0000 </r>
       <r>   62.3707    0.0000 </r>
      </set>
      <set comment="kpoint 32">
       <r>   -9.2248    1.0000 </r>
       <r>   34.4153    0.0000 </r>
       <r>   43.3097    0.0000 </r>
       <r>   63.5169    0.0000 </r>
      </set>
      <set comment="kpoint 33">
       <r>   -7.6720    1.0000 </r>
       <r>   29.3755    0.0000 </r>
       <r>   44.4396    0.0000 </r>
       <r>   64.9828    0.0000 </r>
      </set>
      <set comment="kpoint 34">
       <r>   -5.8001    1.0000 </r>
       <r>   24.4450    0.0000 </r>
       <r>   46.1690    0.0000 </r>
       <r>   66.6751    0.0000 </r>
      </set>
      <set comment="kpoint 35">
       <r>   -3.6559    1.0000 </r>
       <r>   19.8452    0.0000 </r>
       <r>   48.2612    0.0000 </r>
       <r>   68.0694    0.0000 </r>
      </set>
      <set comment="kpoint 36">
       <r>   -1.3259    1.0000 </r>
       <r>   15.7584    0.0000 </r>
       <r>   50.5898    0.0000 </r>
       <r>   66.6591    0.0000 </r>
      </set>
      <set comment="kpoint 37">
       <r>    0.8770    1.0000 </r>
       <r>   12.4966    0.0000 </r>
       <r>   52.8413    0.0000 </r>
       <r>   63.7295    0.0000 </r>
      </set>
      <set comment="kpoint 38">
       <r>    1.9749    0.9999 </r>
       <r>   11.0555    0.0000 </r>
       <r>   53.9901    0.0000 </r>
       <r>   62.2901    0.0000 </r>
      </set>
      <set comment="kpoint 39">
       <r>   -8.0103    1.0000 </r>
       <r>   33.9442    0.0000 </r>
       <r>   39.2020    0.0000 </r>
       <r>   64.6148    0.0000 </r>
      </set>
      <set comment="kpoint 40">
       <r>   -6.4581    1.0000 </r>
       <r>   30.2720    0.0000 </r>
       <r>   38.9871    0.0000 </r>
       <r>   65.9646    0.0000 </r>
      </set>
      <set comment="kpoint 41">
       <r>   -4.5918    1.0000 </r>
       <r>   25.5680    0.0000 </r>
       <r>   40.4965    0.0000 </r>
       <r>   67.0188    0.0000 </r>
      </set>
      <set comment="kpoint 42">
       <r>   -2.4498    1.0000 </r>
       <r>   21.0428    0.0000 </r>
       <r>   42.5488    0.0000 </r>
       <r>   64.9549    0.0000 </r>
      </set>
      <set comment="kpoint 43">
       <r>   -0.1338    1.0000 </r>
       <r>   16.9860    0.0000 </r>
       <r>   44.8889    0.0000 </r>
       <r>   61.1536    0.0000 </r>
      </set>
      <set comment="kpoint 44">
       <r>    2.0627    0.9955 </r>
       <r>   13.7509    0.0000 </r>
       <r>   47.2024    0.0000 </r>
       <r>   57.8366    0.0000 </r>
      </set>
      <set comment="kpoint 45">
       <r>    3.1416    0.0000 </r>
       <r>   12.3260    0.0000 </r>
       <r>   48.4445    0.0000 </r>
       <r>   56.2796    0.0000 </r>
      </set>
      <set comment="kpoint 46">
       <r>   -4.9097    1.0000 </r>
       <r>   30.1950    0.0000 </r>
       <r>   35.1888    0.0000 </r>
       <r>   66.6665    0.0000 </r>
      </set>
      <set comment="kpoint 47">
       <r>   -3.0515    1.0000 </r>
       <r>   26.8177    0.0000 </r>
       <r>   35.3743    0.0000 </r>
       <r>   64.1477    0.0000 </r>
      </set>
      <set comment="kpoint 48">
       <r>   -0.9160    1.0000 </r>
       <r>   22.5301    0.0000 </r>
       <r>   37.2262    0.0000 </r>
       <r>   59.8212    0.0000 </r>
      </set>
      <set comment="kpoint 49">
       <r>    1.3921    1.0000 </r>
       <r>   18.5444    0.0000 </r>
       <r>   39.5214    0.0000 </r>
       <r>   55.6781    0.0000 </r>
      </set>
      <set comment="kpoint 50">
       <r>    3.5526    0.0000 </r>
       <r>   15.3557    0.0000 </r>
       <r>   41.8576    0.0000 </r>
       <r>   52.2492    0.0000 </r>
      </set>
      <set comment="kpoint 51">
       <r>    4.6053    0.0000 </r>
       <r>   13.9576    0.0000 </r>
       <r>   43.1104    0.0000 </r>
       <r>   50.6321    0.0000 </r>
      </set>
      <set comment="kpoint 52">
       <r>   -1.1983    1.0000 </r>
       <r>   27.1356    0.0000 </r>
       <r>   31.9024    0.0000 </r>
       <r>   59.3782    0.0000 </r>
      </set>
      <set comment="kpoint 53">
       <r>    0.9313    1.0000 </r>
       <r>   24.1611    0.0000 </r>
       <r>   32.4589    0.0000 </r>
       <r>   54.7447    0.0000 </r>
      </set>
      <set comment="kpoint 54">
       <r>    3.2089    0.0000 </r>
       <r>   20.4042    0.0000 </r>
       <r>   34.5857    0.0000 </r>
       <r>   50.5287    0.0000 </r>
      </set>
      <set comment="kpoint 55">
       <r>    5.3325    0.0000 </r>
       <r>   17.3042    0.0000 </r>
       <r>   36.9161    0.0000 </r>
       <r>   47.0312    0.0000 </r>
      </set>
      <set comment="kpoint 56">
       <r>    6.3552    0.0000 </r>
       <r>   15.9479    0.0000 </r>
       <r>   38.2076    0.0000 </r>
       <r>   45.3576    0.0000 </r>
      </set>
      <set comment="kpoint 57">
       <r>    3.0342    0.0000 </r>
       <r>   24.9110    0.0000 </r>
       <r>   29.3479    0.0000 </r>
       <r>   50.0269    0.0000 </r>
      </set>
      <set comment="kpoint 58">
       <r>    5.2788    0.0000 </r>
       <r>   22.4408    0.0000 </r>
       <r>   30.2468    0.0000 </r>
       <r>   45.7611    0.0000 </r>
      </set>
      <set comment="kpoint 59">
       <r>    7.3393    0.0000 </r>
       <r>   19.5707    0.0000 </r>
       <r>   32.4538    0.0000 </r>
       <r>   42.1992    0.0000 </r>
      </set>
      <set comment="kpoint 60">
       <r>    8.3167    0.0000 </r>
       <r>   18.2906    0.0000 </r>
       <r>   33.7770    0.0000 </r>
       <r>   40.4602    0.0000 </r>
      </set>
      <set comment="kpoint 61">
       <r>    7.4723    0.0000 </r>
       <r>   23.7101    0.0000 </r>
       <r>   27.5232    0.0000 </r>
       <r>   41.4443    0.0000 </r>
      </set>
      <set comment="kpoint 62">
       <r>    9.4438    0.0000 </r>
       <r>   22.0712    0.0000 </r>
       <r>   28.6656    0.0000 </r>
       <r>   37.7996    0.0000 </r>
      </set>
      <set comment="kpoint 63">
       <r>   10.3438    0.0000 </r>
       <r>   20.9677    0.0000 </r>
       <r>   29.9796    0.0000 </r>
       <r>   35.9583    0.0000 </r>
      </set>
      <set comment="kpoint 64">
       <r>   11.2894    0.0000 </r>
       <r>   24.1168    0.0000 </r>
       <r>   26.4283    0.0000 </r>
       <r>   33.9989    0.0000 </r>
      </set>
      <set comment="kpoint 65">
       <r>   12.0877    0.0000 </r>
       <r>   23.8960    0.0000 </r>
       <r>   27.1716    0.0000 </r>
       <r>   31.9352    0.0000 </r>
      </set>
      <set comment="kpoint 66">
       <r>   12.8807    0.0000 </r>
       <r>   26.0634    0.0000 </r>
       <r>   26.0634    0.0000 </r>
       <r>   29.4090    0.0000 </r>
      </set>
      <set comment="kpoint 67">
       <r>  -13.0748    1.0000 </r>
       <r>   47.1833    0.0000 </r>
       <r>   55.7791    0.0000 </r>
       <r>   55.7791    0.0000 </r>
      </set>
      <set comment="kpoint 68">
       <r>  -12.5470    1.0000 </r>
       <r>   44.2011    0.0000 </r>
       <r>   52.9488    0.0000 </r>
       <r>   56.3230    0.0000 </r>
      </set>
      <set comment="kpoint 69">
       <r>  -11.6707    1.0000 </r>
       <r>   39.1157    0.0000 </r>
       <r>   52.7273    0.0000 </r>
       <r>   57.2282    0.0000 </r>
      </set>
      <set comment="kpoint 70">
       <r>  -10.4560    1.0000 </r>
       <r>   33.6101    0.0000 </r>
       <r>   53.5334    0.0000 </r>
       <r>   58.4876    0.0000 </r>
      </set>
      <set comment="kpoint 71">
       <r>   -8.8996    1.0000 </r>
       <r>   28.2841    0.0000 </r>
       <r>   54.8734    0.0000 </r>
       <r>   60.1124    0.0000 </r>
      </set>
      <set comment="kpoint 72">
       <r>   -7.0247    1.0000 </r>
       <r>   23.2656    0.0000 </r>
       <r>   56.5782    0.0000 </r>
       <r>   62.0908    0.0000 </r>
      </set>
      <set comment="kpoint 73">
       <r>   -4.8691    1.0000 </r>
       <r>   18.6423    0.0000 </r>
       <r>   58.5479    0.0000 </r>
       <r>   64.4120    0.0000 </r>
      </set>
      <set comment="kpoint 74">
       <r>   -2.5311    1.0000 </r>
       <r>   14.5271    0.0000 </r>
       <r>   60.6236    0.0000 </r>
       <r>   67.0442    0.0000 </r>
      </set>
      <set comment="kpoint 75">
       <r>   -0.3179    1.0000 </r>
       <r>   11.2373    0.0000 </r>
       <r>   62.4507    0.0000 </r>
       <r>   69.8499    0.0000 </r>
      </set>
      <set comment="kpoint 76">
       <r>    0.7715    1.0000 </r>
       <r>    9.7796    0.0000 </r>
       <r>   63.2526    0.0000 </r>
       <r>   71.7040    0.0000 </r>
      </set>
      <set comment="kpoint 77">
       <r>  -12.0225    1.0000 </r>
       <r>   43.1062    0.0000 </r>
       <r>   49.6026    0.0000 </r>
       <r>   55.4156    0.0000 </r>
      </set>
      <set comment="kpoint 78">
       <r>  -11.1452    1.0000 </r>
       <r>   39.2595    0.0000 </r>
       <r>   48.3322    0.0000 </r>
       <r>   56.1240    0.0000 </r>
      </set>
      <set comment="kpoint 79">
       <r>   -9.9296    1.0000 </r>
       <r>   34.0227    0.0000 </r>
       <r>   48.9573    0.0000 </r>
       <r>   57.3062    0.0000 </r>
      </set>
      <set comment="kpoint 80">
       <r>   -8.3713    1.0000 </r>
       <r>   28.7684    0.0000 </r>
       <r>   50.2854    0.0000 </r>
       <r>   58.8786    0.0000 </r>
      </set>
      <set comment="kpoint 81">
       <r>   -6.4977    1.0000 </r>
       <r>   23.7762    0.0000 </r>
       <r>   52.0340    0.0000 </r>
       <r>   60.7971    0.0000 </r>
      </set>
      <set comment="kpoint 82">
       <r>   -4.3454    1.0000 </r>
       <r>   19.1610    0.0000 </r>
       <r>   54.0883    0.0000 </r>
       <r>   63.0309    0.0000 </r>
      </set>
      <set comment="kpoint 83">
       <r>   -2.0095    1.0000 </r>
       <r>   15.0588    0.0000 </r>
       <r>   56.3193    0.0000 </r>
       <r>   65.5079    0.0000 </r>
      </set>
      <set comment="kpoint 84">
       <r>    0.2007    1.0000 </r>
       <r>   11.7796    0.0000 </r>
       <r>   58.3824    0.0000 </r>
       <r>   67.9371    0.0000 </r>
      </set>
      <set comment="kpoint 85">
       <r>    1.3019    1.0000 </r>
       <r>   10.3272    0.0000 </r>
       <r>   59.3698    0.0000 </r>
       <r>   68.8266    0.0000 </r>
      </set>
      <set comment="kpoint 86">
       <r>  -10.2686    1.0000 </r>
       <r>   38.4275    0.0000 </r>
       <r>   44.1311    0.0000 </r>
       <r>   56.7368    0.0000 </r>
      </set>
      <set comment="kpoint 87">
       <r>   -9.0509    1.0000 </r>
       <r>   34.5515    0.0000 </r>
       <r>   43.4509    0.0000 </r>
       <r>   57.8845    0.0000 </r>
      </set>
      <set comment="kpoint 88">
       <r>   -7.5001    1.0000 </r>
       <r>   29.5318    0.0000 </r>
       <r>   44.5590    0.0000 </r>
       <r>   59.4053    0.0000 </r>
      </set>
      <set comment="kpoint 89">
       <r>   -5.6290    1.0000 </r>
       <r>   24.6110    0.0000 </r>
       <r>   46.2767    0.0000 </r>
       <r>   61.2701    0.0000 </r>
      </set>
      <set comment="kpoint 90">
       <r>   -3.4806    1.0000 </r>
       <r>   20.0254    0.0000 </r>
       <r>   48.3626    0.0000 </r>
       <r>   63.3828    0.0000 </r>
      </set>
      <set comment="kpoint 91">
       <r>   -1.1507    1.0000 </r>
       <r>   15.9374    0.0000 </r>
       <r>   50.6895    0.0000 </r>
       <r>   65.2275    0.0000 </r>
      </set>
      <set comment="kpoint 92">
       <r>    1.0560    1.0000 </r>
       <r>   12.6776    0.0000 </r>
       <r>   52.9199    0.0000 </r>
       <r>   63.8082    0.0000 </r>
      </set>
      <set comment="kpoint 93">
       <r>    2.1520    0.9114 </r>
       <r>   11.2375    0.0000 </r>
       <r>   54.0507    0.0000 </r>
       <r>   62.4683    0.0000 </r>
      </set>
      <set comment="kpoint 94">
       <r>   -7.8349    1.0000 </r>
       <r>   34.0814    0.0000 </r>
       <r>   39.3834    0.0000 </r>
       <r>   59.0049    0.0000 </r>
      </set>
      <set comment="kpoint 95">
       <r>   -6.2848    1.0000 </r>
       <r>   30.4266    0.0000 </r>
       <r>   39.1547    0.0000 </r>
       <r>   60.4892    0.0000 </r>
      </set>
      <set comment="kpoint 96">
       <r>   -4.4204    1.0000 </r>
       <r>   25.7280    0.0000 </r>
       <r>   40.6537    0.0000 </r>
       <r>   62.2533    0.0000 </r>
      </set>
      <set comment="kpoint 97">
       <r>   -2.2749    1.0000 </r>
       <r>   21.2198    0.0000 </r>
       <r>   42.7142    0.0000 </r>
       <r>   63.6509    0.0000 </r>
      </set>
      <set comment="kpoint 98">
       <r>    0.0482    1.0000 </r>
       <r>   17.1652    0.0000 </r>
       <r>   45.0497    0.0000 </r>
       <r>   61.2154    0.0000 </r>
      </set>
      <set comment="kpoint 99">
       <r>    2.2314    0.5899 </r>
       <r>   13.9312    0.0000 </r>
       <r>   47.3419    0.0000 </r>
       <r>   57.9912    0.0000 </r>
      </set>
      <set comment="kpoint 100">
       <r>    3.3131    0.0000 </r>
       <r>   12.5079    0.0000 </r>
       <r>   48.5449    0.0000 </r>
       <r>   56.4586    0.0000 </r>
      </set>
      <set comment="kpoint 101">
       <r>   -4.7386    1.0000 </r>
       <r>   30.3430    0.0000 </r>
       <r>   35.3695    0.0000 </r>
       <r>   61.8785    0.0000 </r>
      </set>
      <set comment="kpoint 102">
       <r>   -2.8812    1.0000 </r>
       <r>   26.9818    0.0000 </r>
       <r>   35.5419    0.0000 </r>
       <r>   62.8752    0.0000 </r>
      </set>
      <set comment="kpoint 103">
       <r>   -0.7414    1.0000 </r>
       <r>   22.6983    0.0000 </r>
       <r>   37.3884    0.0000 </r>
       <r>   59.8676    0.0000 </r>
      </set>
      <set comment="kpoint 104">
       <r>    1.5627    1.0000 </r>
       <r>   18.7241    0.0000 </r>
       <r>   39.6919    0.0000 </r>
       <r>   55.8370    0.0000 </r>
      </set>
      <set comment="kpoint 105">
       <r>    3.7318    0.0000 </r>
       <r>   15.5374    0.0000 </r>
       <r>   42.0273    0.0000 </r>
       <r>   52.4271    0.0000 </r>
      </set>
      <set comment="kpoint 106">
       <r>    4.7815    0.0000 </r>
       <r>   14.1396    0.0000 </r>
       <r>   43.2659    0.0000 </r>
       <r>   50.8133    0.0000 </r>
      </set>
      <set comment="kpoint 107">
       <r>   -1.0210    1.0000 </r>
       <r>   27.3055    0.0000 </r>
       <r>   32.0842    0.0000 </r>
       <r>   59.4502    0.0000 </r>
      </set>
      <set comment="kpoint 108">
       <r>    1.0941    1.0000 </r>
       <r>   24.3277    0.0000 </r>
       <r>   32.6324    0.0000 </r>
       <r>   54.8912    0.0000 </r>
      </set>
      <set comment="kpoint 109">
       <r>    3.3802    0.0000 </r>
       <r>   20.5815    0.0000 </r>
       <r>   34.7552    0.0000 </r>
       <r>   50.6971    0.0000 </r>
      </set>
      <set comment="kpoint 110">
       <r>    5.5089    0.0000 </r>
       <r>   17.4850    0.0000 </r>
       <r>   37.0858    0.0000 </r>
       <r>   47.2086    0.0000 </r>
      </set>
      <set comment="kpoint 111">
       <r>    6.5308    0.0000 </r>
       <r>   16.1299    0.0000 </r>
       <r>   38.3741    0.0000 </r>
       <r>   45.5392    0.0000 </r>
      </set>
      <set comment="kpoint 112">
       <r>    3.2010    0.0000 </r>
       <r>   25.0746    0.0000 </r>
       <r>   29.5285    0.0000 </r>
       <r>   50.1926    0.0000 </r>
      </set>
      <set comment="kpoint 113">
       <r>    5.4471    0.0000 </r>
       <r>   22.6131    0.0000 </r>
       <r>   30.4222    0.0000 </r>
       <r>   45.9343    0.0000 </r>
      </set>
      <set comment="kpoint 114">
       <r>    7.5116    0.0000 </r>
       <r>   19.7511    0.0000 </r>
       <r>   32.6258    0.0000 </r>
       <r>   42.3781    0.0000 </r>
      </set>
      <set comment="kpoint 115">
       <r>    8.4912    0.0000 </r>
       <r>   18.4726    0.0000 </r>
       <r>   33.9494    0.0000 </r>
       <r>   40.6420    0.0000 </r>
      </set>
      <set comment="kpoint 116">
       <r>    7.6382    0.0000 </r>
       <r>   23.8803    0.0000 </r>
       <r>   27.7038    0.0000 </r>
       <r>   41.6209    0.0000 </r>
      </set>
      <set comment="kpoint 117">
       <r>    9.6060    0.0000 </r>
       <r>   22.2486    0.0000 </r>
       <r>   28.8418    0.0000 </r>
       <r>   37.9790    0.0000 </r>
      </set>
      <set comment="kpoint 118">
       <r>   10.5091    0.0000 </r>
       <r>   21.1494    0.0000 </r>
       <r>   30.1516    0.0000 </r>
       <r>   36.1400    0.0000 </r>
      </set>
      <set comment="kpoint 119">
       <r>   11.4439    0.0000 </r>
       <r>   24.2925    0.0000 </r>
       <r>   26.6089    0.0000 </r>
       <r>   34.1788    0.0000 </r>
      </set>
      <set comment="kpoint 120">
       <r>   12.2488    0.0000 </r>
       <r>   24.0776    0.0000 </r>
       <r>   27.3488    0.0000 </r>
       <r>   32.1169    0.0000 </r>
      </set>
      <set comment="kpoint 121">
       <r>   13.0179    0.0000 </r>
       <r>   26.2440    0.0000 </r>
       <r>   26.2440    0.0000 </r>
       <r>   29.5912    0.0000 </r>
      </set>
      <set comment="kpoint 122">
       <r>  -11.5013    1.0000 </r>
       <r>   42.3943    0.0000 </r>
       <r>   50.1392    0.0000 </r>
       <r>   50.1392    0.0000 </r>
      </set>
      <set comment="kpoint 123">
       <r>  -10.6231    1.0000 </r>
       <r>   39.3687    0.0000 </r>
       <r>   47.8352    0.0000 </r>
       <r>   51.0449    0.0000 </r>
      </set>
      <set comment="kpoint 124">
       <r>   -9.3947    1.0000 </r>
       <r>   34.4551    0.0000 </r>
       <r>   48.1157    0.0000 </r>
       <r>   52.3154    0.0000 </r>
      </set>
      <set comment="kpoint 125">
       <r>   -7.8433    1.0000 </r>
       <r>   29.2506    0.0000 </r>
       <r>   49.3167    0.0000 </r>
       <r>   53.9404    0.0000 </r>
      </set>
      <set comment="kpoint 126">
       <r>   -5.9710    1.0000 </r>
       <r>   24.2860    0.0000 </r>
       <r>   50.9923    0.0000 </r>
       <r>   55.9195    0.0000 </r>
      </set>
      <set comment="kpoint 127">
       <r>   -3.8208    1.0000 </r>
       <r>   19.6838    0.0000 </r>
       <r>   52.9797    0.0000 </r>
       <r>   58.2421    0.0000 </r>
      </set>
      <set comment="kpoint 128">
       <r>   -1.4881    1.0000 </r>
       <r>   15.5902    0.0000 </r>
       <r>   55.1286    0.0000 </r>
       <r>   60.8774    0.0000 </r>
      </set>
      <set comment="kpoint 129">
       <r>    0.7189    1.0000 </r>
       <r>   12.3164    0.0000 </r>
       <r>   57.0774    0.0000 </r>
       <r>   63.6910    0.0000 </r>
      </set>
      <set comment="kpoint 130">
       <r>    1.8086    1.0000 </r>
       <r>   10.8723    0.0000 </r>
       <r>   57.9778    0.0000 </r>
       <r>   65.5625    0.0000 </r>
      </set>
      <set comment="kpoint 131">
       <r>   -9.7456    1.0000 </r>
       <r>   38.5834    0.0000 </r>
       <r>   44.6741    0.0000 </r>
       <r>   50.5530    0.0000 </r>
      </set>
      <set comment="kpoint 132">
       <r>   -8.5242    1.0000 </r>
       <r>   34.9447    0.0000 </r>
       <r>   43.8425    0.0000 </r>
       <r>   51.6205    0.0000 </r>
      </set>
      <set comment="kpoint 133">
       <r>   -6.9744    1.0000 </r>
       <r>   30.0070    0.0000 </r>
       <r>   44.8610    0.0000 </r>
       <r>   53.1604    0.0000 </r>
      </set>
      <set comment="kpoint 134">
       <r>   -5.1058    1.0000 </r>
       <r>   25.1119    0.0000 </r>
       <r>   46.5289    0.0000 </r>
       <r>   55.0697    0.0000 </r>
      </set>
      <set comment="kpoint 135">
       <r>   -2.9585    1.0000 </r>
       <r>   20.5465    0.0000 </r>
       <r>   48.5735    0.0000 </r>
       <r>   57.3066    0.0000 </r>
      </set>
      <set comment="kpoint 136">
       <r>   -0.6252    1.0000 </r>
       <r>   16.4722    0.0000 </r>
       <r>   50.8403    0.0000 </r>
       <r>   59.8054    0.0000 </r>
      </set>
      <set comment="kpoint 137">
       <r>    1.5685    1.0000 </r>
       <r>   13.2170    0.0000 </r>
       <r>   52.9725    0.0000 </r>
       <r>   62.2541    0.0000 </r>
      </set>
      <set comment="kpoint 138">
       <r>    2.6493    0.0000 </r>
       <r>   11.7805    0.0000 </r>
       <r>   54.0316    0.0000 </r>
       <r>   62.9926    0.0000 </r>
      </set>
      <set comment="kpoint 139">
       <r>   -7.3071    1.0000 </r>
       <r>   34.4741    0.0000 </r>
       <r>   39.9329    0.0000 </r>
       <r>   52.5904    0.0000 </r>
      </set>
      <set comment="kpoint 140">
       <r>   -5.7581    1.0000 </r>
       <r>   30.8933    0.0000 </r>
       <r>   39.6531    0.0000 </r>
       <r>   54.0779    0.0000 </r>
      </set>
      <set comment="kpoint 141">
       <r>   -3.8952    1.0000 </r>
       <r>   26.2319    0.0000 </r>
       <r>   41.1197    0.0000 </r>
       <r>   55.9302    0.0000 </r>
      </set>
      <set comment="kpoint 142">
       <r>   -1.7488    1.0000 </r>
       <r>   21.7395    0.0000 </r>
       <r>   43.1479    0.0000 </r>
       <r>   58.0575    0.0000 </r>
      </set>
      <set comment="kpoint 143">
       <r>    0.5638    1.0000 </r>
       <r>   17.6940    0.0000 </r>
       <r>   45.4489    0.0000 </r>
       <r>   59.9499    0.0000 </r>
      </set>
      <set comment="kpoint 144">
       <r>    2.7423    0.0000 </r>
       <r>   14.4703    0.0000 </r>
       <r>   47.7082    0.0000 </r>
       <r>   58.4051    0.0000 </r>
      </set>
      <set comment="kpoint 145">
       <r>    3.8180    0.0000 </r>
       <r>   13.0531    0.0000 </r>
       <r>   48.8784    0.0000 </r>
       <r>   56.9980    0.0000 </r>
      </set>
      <set comment="kpoint 146">
       <r>   -4.2153    1.0000 </r>
       <r>   30.7857    0.0000 </r>
       <r>   35.9121    0.0000 </r>
       <r>   55.5195    0.0000 </r>
      </set>
      <set comment="kpoint 147">
       <r>   -2.3502    1.0000 </r>
       <r>   27.4876    0.0000 </r>
       <r>   36.0592    0.0000 </r>
       <r>   57.2826    0.0000 </r>
      </set>
      <set comment="kpoint 148">
       <r>   -0.2204    1.0000 </r>
       <r>   23.2202    0.0000 </r>
       <r>   37.8846    0.0000 </r>
       <r>   58.7360    0.0000 </r>
      </set>
      <set comment="kpoint 149">
       <r>    2.0782    0.9916 </r>
       <r>   19.2531    0.0000 </r>
       <r>   40.1716    0.0000 </r>
       <r>   56.2187    0.0000 </r>
      </set>
      <set comment="kpoint 150">
       <r>    4.2401    0.0000 </r>
       <r>   16.0763    0.0000 </r>
       <r>   42.4971    0.0000 </r>
       <r>   52.9350    0.0000 </r>
      </set>
      <set comment="kpoint 151">
       <r>    5.2846    0.0000 </r>
       <r>   14.6847    0.0000 </r>
       <r>   43.7234    0.0000 </r>
       <r>   51.3574    0.0000 </r>
      </set>
      <set comment="kpoint 152">
       <r>   -0.4990    1.0000 </r>
       <r>   27.7920    0.0000 </r>
       <r>   32.6279    0.0000 </r>
       <r>   58.3470    0.0000 </r>
      </set>
      <set comment="kpoint 153">
       <r>    1.6153    1.0000 </r>
       <r>   24.8428    0.0000 </r>
       <r>   33.1623    0.0000 </r>
       <r>   55.2791    0.0000 </r>
      </set>
      <set comment="kpoint 154">
       <r>    3.8981    0.0000 </r>
       <r>   21.1109    0.0000 </r>
       <r>   35.2738    0.0000 </r>
       <r>   51.1983    0.0000 </r>
      </set>
      <set comment="kpoint 155">
       <r>    6.0091    0.0000 </r>
       <r>   18.0225    0.0000 </r>
       <r>   37.5781    0.0000 </r>
       <r>   47.7346    0.0000 </r>
      </set>
      <set comment="kpoint 156">
       <r>    7.0249    0.0000 </r>
       <r>   16.6748    0.0000 </r>
       <r>   38.8526    0.0000 </r>
       <r>   46.0832    0.0000 </r>
      </set>
      <set comment="kpoint 157">
       <r>    3.7109    0.0000 </r>
       <r>   25.5762    0.0000 </r>
       <r>   30.0722    0.0000 </r>
       <r>   50.6819    0.0000 </r>
      </set>
      <set comment="kpoint 158">
       <r>    5.9537    0.0000 </r>
       <r>   23.1342    0.0000 </r>
       <r>   30.9512    0.0000 </r>
       <r>   46.4522    0.0000 </r>
      </set>
      <set comment="kpoint 159">
       <r>    8.0100    0.0000 </r>
       <r>   20.2879    0.0000 </r>
       <r>   33.1418    0.0000 </r>
       <r>   42.9118    0.0000 </r>
      </set>
      <set comment="kpoint 160">
       <r>    8.9801    0.0000 </r>
       <r>   19.0175    0.0000 </r>
       <r>   34.4525    0.0000 </r>
       <r>   41.1866    0.0000 </r>
      </set>
      <set comment="kpoint 161">
       <r>    8.1387    0.0000 </r>
       <r>   24.3961    0.0000 </r>
       <r>   28.2475    0.0000 </r>
       <r>   42.1502    0.0000 </r>
      </set>
      <set comment="kpoint 162">
       <r>   10.0975    0.0000 </r>
       <r>   22.7836    0.0000 </r>
       <r>   29.3731    0.0000 </r>
       <r>   38.5167    0.0000 </r>
      </set>
      <set comment="kpoint 163">
       <r>   10.9978    0.0000 </r>
       <r>   21.6943    0.0000 </r>
       <r>   30.6761    0.0000 </r>
       <r>   36.6852    0.0000 </r>
      </set>
      <set comment="kpoint 164">
       <r>   11.9298    0.0000 </r>
       <r>   24.8273    0.0000 </r>
       <r>   27.1526    0.0000 </r>
       <r>   34.7209    0.0000 </r>
      </set>
      <set comment="kpoint 165">
       <r>   12.7291    0.0000 </r>
       <r>   24.6222    0.0000 </r>
       <r>   27.8861    0.0000 </r>
       <r>   32.6626    0.0000 </r>
      </set>
      <set comment="kpoint 166">
       <r>   13.4933    0.0000 </r>
       <r>   26.7876    0.0000 </r>
       <r>   26.7876    0.0000 </r>
       <r>   30.1379    0.0000 </r>
      </set>
      <set comment="kpoint 167">
       <r>   -8.8688    1.0000 </r>
       <r>   38.1977    0.0000 </r>
       <r>   45.5797    0.0000 </r>
       <r>   45.5797    0.0000 </r>
      </set>
      <set comment="kpoint 168">
       <r>   -7.6512    1.0000 </r>
       <r>   35.4037    0.0000 </r>
       <r>   43.6960    0.0000 </r>
       <r>   46.8462    0.0000 </r>
      </set>
      <set comment="kpoint 169">
       <r>   -6.1031    1.0000 </r>
       <r>   30.7555    0.0000 </r>
       <r>   44.3422    0.0000 </r>
       <r>   48.4711    0.0000 </r>
      </set>
      <set comment="kpoint 170">
       <r>   -4.2371    1.0000 </r>
       <r>   25.9413    0.0000 </r>
       <r>   45.8678    0.0000 </r>
       <r>   50.4503    0.0000 </r>
      </set>
      <set comment="kpoint 171">
[...]
       </set>
       <set comment="band 4">
        <r>  0.0000  0.2179  0.2179  0.0000  0.0000  0.0000  0.0000  0.0000  0.0000 </r>
       </set>
      </set>
      <set comment="kpoint 254">
       <set comment="band 1">
        <r>  0.4999  0.0207  0.0207  0.0200  0.0000  0.0000  0.0000  0.0000  0.0000 </r>
       </set>
       <set comment="band 2">
        <r>  0.1456  0.0007  0.0007  0.1840  0.0000  0.0000  0.0000  0.0000  0.0000 </r>
       </set>
       <set comment="band 3">
        <r>  0.1611  0.1123  0.1123  0.0805  0.0000  0.0000  0.0000  0.0000  0.0000 </r>
       </set>
       <set comment="band 4">
        <r>  0.0000  0.2373  0.2373  0.0000  0.0000  0.0000  0.0000  0.0000  0.0000 </r>
       </set>
      </set>
      <set comment="kpoint 255">
       <set comment="band 1">
        <r>  0.5642  0.0227  0.0227  0.0110  0.0000  0.0000  0.0000  0.0000  0.0000 </r>
       </set>
       <set comment="band 2">
        <r>  0.0567  0.0009  0.0009  0.2040  0.0000  0.0000  0.0000  0.0000  0.0000 </r>
       </set>
       <set comment="band 3">
        <r>  0.2154  0.1286  0.1286  0.0331  0.0000  0.0000  0.0000  0.0000  0.0000 </r>
       </set>
       <set comment="band 4">
        <r>  0.0000  0.2821  0.2821  0.0000  0.0000  0.0000  0.0000  0.0000  0.0000 </r>
       </set>
      </set>
      <set comment="kpoint 256">
       <set comment="band 1">
        <r>  0.6143  0.0247  0.0247  0.0000  0.0000  0.0000  0.0000  0.0000  0.0000 </r>
       </set>
       <set comment="band 2">
        <r>  0.0000  0.0000  0.0000  0.2204  0.0000  0.0000  0.0000  0.0000  0.0000 </r>
       </set>
       <set comment="band 3">
        <r>  0.2464  0.1419  0.1419  0.0000  0.0000  0.0000  0.0000  0.0000  0.0000 </r>
       </set>
       <set comment="band 4">
        <r>  0.0000  0.3768  0.3768  0.0000  0.0000  0.0000  0.0000  0.0000  0.0000 </r>
       </set>
      </set>
      <set comment="kpoint 257">
       <set comment="band 1">
        <r>  0.4842  0.0226  0.0193  0.0226  0.0000  0.0000  0.0000  0.0000  0.0000 </r>
       </set>
       <set comment="band 2">
        <r>  0.2793  0.0502  0.0003  0.0502  0.0000  0.0000  0.0000  0.0000  0.0000 </r>
       </set>
       <set comment="band 3">
        <r>  0.0000  0.2039  0.0000  0.2039  0.0000  0.0000  0.0000  0.0000  0.0000 </r>
       </set>
       <set comment="band 4">
        <r>  0.0348  0.0401  0.3395  0.0401  0.0000  0.0000  0.0000  0.0000  0.0000 </r>
       </set>
      </set>
      <set comment="kpoint 258">
       <set comment="band 1">
        <r>  0.5243  0.0238  0.0211  0.0211  0.0000  0.0000  0.0000  0.0000  0.0000 </r>
       </set>
       <set comment="band 2">
        <r>  0.1679  0.0013  0.0005  0.1655  0.0000  0.0000  0.0000  0.0000  0.0000 </r>
       </set>
       <set comment="band 3">
        <r>  0.0749  0.2581  0.0040  0.0935  0.0000  0.0000  0.0000  0.0000  0.0000 </r>
       </set>
       <set comment="band 4">
        <r>  0.0486  0.0573  0.3660  0.0123  0.0000  0.0000  0.0000  0.0000  0.0000 </r>
       </set>
      </set>
      <set comment="kpoint 259">
       <set comment="band 1">
        <r>  0.5905  0.0265  0.0233  0.0107  0.0000  0.0000  0.0000  0.0000  0.0000 </r>
       </set>
       <set comment="band 2">
        <r>  0.0592  0.0002  0.0007  0.2108  0.0000  0.0000  0.0000  0.0000  0.0000 </r>
       </set>
       <set comment="band 3">
        <r>  0.1430  0.2890  0.0088  0.0354  0.0000  0.0000  0.0000  0.0000  0.0000 </r>
       </set>
       <set comment="band 4">
        <r>  0.0581  0.0548  0.3775  0.0023  0.0000  0.0000  0.0000  0.0000  0.0000 </r>
       </set>
      </set>
      <set comment="kpoint 260">
       <set comment="band 1">
        <r>  0.6397  0.0263  0.0262  0.0000  0.0000  0.0000  0.0000  0.0000  0.0000 </r>
       </set>
       <set comment="band 2">
        <r>  0.0000  0.0000  0.0000  0.2278  0.0000  0.0000  0.0000  0.0000  0.0000 </r>
       </set>
       <set comment="band 3">
        <r>  0.1811  0.3240  0.0128  0.0000  0.0000  0.0000  0.0000  0.0000  0.0000 </r>
       </set>
       <set comment="band 4">
        <r>  0.0000  0.0000  0.0000  0.2060  0.0000  0.0000  0.0000  0.0000  0.0000 </r>
       </set>
      </set>
      <set comment="kpoint 261">
       <set comment="band 1">
        <r>  0.5679  0.0216  0.0230  0.0216  0.0000  0.0000  0.0000  0.0000  0.0000 </r>
       </set>
       <set comment="band 2">
        <r>  0.1869  0.0702  0.0007  0.0702  0.0000  0.0000  0.0000  0.0000  0.0000 </r>
       </set>
       <set comment="band 3">
        <r>  0.0000  0.2046  0.0000  0.2046  0.0000  0.0000  0.0000  0.0000  0.0000 </r>
       </set>
       <set comment="band 4">
        <r>  0.0912  0.0005  0.3217  0.0005  0.0000  0.0000  0.0000  0.0000  0.0000 </r>
       </set>
      </set>
      <set comment="kpoint 262">
       <set comment="band 1">
        <r>  0.6356  0.0218  0.0265  0.0092  0.0000  0.0000  0.0000  0.0000  0.0000 </r>
       </set>
       <set comment="band 2">
        <r>  0.0658  0.0024  0.0007  0.2152  0.0000  0.0000  0.0000  0.0000  0.0000 </r>
       </set>
       <set comment="band 3">
        <r>  0.0658  0.3184  0.0001  0.0535  0.0000  0.0000  0.0000  0.0000  0.0000 </r>
       </set>
       <set comment="band 4">
        <r>  0.0330  0.0456  0.0107  0.1266  0.0000  0.0000  0.0000  0.0000  0.0000 </r>
       </set>
      </set>
      <set comment="kpoint 263">
       <set comment="band 1">
        <r>  0.6819  0.0235  0.0269  0.0000  0.0000  0.0000  0.0000  0.0000  0.0000 </r>
       </set>
       <set comment="band 2">
        <r>  0.0000  0.0000  0.0000  0.2461  0.0000  0.0000  0.0000  0.0000  0.0000 </r>
       </set>
       <set comment="band 3">
        <r>  0.1078  0.3709  0.0004  0.0000  0.0000  0.0000  0.0000  0.0000  0.0000 </r>
       </set>
       <set comment="band 4">
        <r>  0.0000  0.0000  0.0000  0.1719  0.0000  0.0000  0.0000  0.0000  0.0000 </r>
       </set>
      </set>
      <set comment="kpoint 264">
       <set comment="band 1">
        <r>  0.6997  0.0093  0.0289  0.0093  0.0000  0.0000  0.0000  0.0000  0.0000 </r>
       </set>
       <set comment="band 2">
        <r>  0.0658  0.1117  0.0006  0.1117  0.0000  0.0000  0.0000  0.0000  0.0000 </r>
       </set>
       <set comment="band 3">
        <r>  0.0000  0.2039  0.0000  0.2039  0.0000  0.0000  0.0000  0.0000  0.0000 </r>
       </set>
       <set comment="band 4">
        <r>  0.0159  0.0839  0.0004  0.0839  0.0000  0.0000  0.0000  0.0000  0.0000 </r>
       </set>
      </set>
      <set comment="kpoint 265">
       <set comment="band 1">
        <r>  0.7395  0.0098  0.0303  0.0000  0.0000  0.0000  0.0000  0.0000  0.0000 </r>
       </set>
       <set comment="band 2">
        <r>  0.0000  0.0000  0.0000  0.2905  0.0000  0.0000  0.0000  0.0000  0.0000 </r>
       </set>
       <set comment="band 3">
        <r>  0.0376  0.4012  0.0001  0.0000  0.0000  0.0000  0.0000  0.0000  0.0000 </r>
       </set>
       <set comment="band 4">
        <r>  0.0000  0.0000  0.0000  0.1233  0.0000  0.0000  0.0000  0.0000  0.0000 </r>
       </set>
      </set>
      <set comment="kpoint 266">
       <set comment="band 1">
        <r>  0.7743  0.0000  0.0306  0.0000  0.0000  0.0000  0.0000  0.0000  0.0000 </r>
       </set>
       <set comment="band 2">
        <r>  0.0000  0.2035  0.0000  0.2035  0.0000  0.0000  0.0000  0.0000  0.0000 </r>
       </set>
       <set comment="band 3">
        <r>  0.0000  0.2035  0.0000  0.2035  0.0000  0.0000  0.0000  0.0000  0.0000 </r>
       </set>
       <set comment="band 4">
        <r>  0.0000  0.0000  0.0000  0.0000  0.0000  0.0000  0.0000  0.0000  0.0000 </r>
       </set>
      </set>
      <set comment="kpoint 267">
       <set comment="band 1">
        <r>  0.5080  0.0231  0.0231  0.0231  0.0000  0.0000  0.0000  0.0000  0.0000 </r>
       </set>
       <set comment="band 2">
        <r>  0.2953  0.0281  0.0281  0.0281  0.0000  0.0000  0.0000  0.0000  0.0000 </r>
       </set>
       <set comment="band 3">
        <r>  0.0000  0.0715  0.2858  0.0715  0.0000  0.0000  0.0000  0.0000  0.0000 </r>
       </set>
       <set comment="band 4">
        <r>  0.0000  0.2144  0.0000  0.2144  0.0000  0.0000  0.0000  0.0000  0.0000 </r>
       </set>
      </set>
      <set comment="kpoint 268">
       <set comment="band 1">
        <r>  0.5510  0.0240  0.0240  0.0222  0.0000  0.0000  0.0000  0.0000  0.0000 </r>
       </set>
       <set comment="band 2">
        <r>  0.1895  0.0019  0.0019  0.1453  0.0000  0.0000  0.0000  0.0000  0.0000 </r>
       </set>
       <set comment="band 3">
        <r>  0.0770  0.1095  0.1095  0.1421  0.0000  0.0000  0.0000  0.0000  0.0000 </r>
       </set>
       <set comment="band 4">
        <r>  0.0000  0.2331  0.2331  0.0000  0.0000  0.0000  0.0000  0.0000  0.0000 </r>
       </set>
      </set>
      <set comment="kpoint 269">
       <set comment="band 1">
        <r>  0.6188  0.0268  0.0268  0.0105  0.0000  0.0000  0.0000  0.0000  0.0000 </r>
       </set>
       <set comment="band 2">
        <r>  0.0620  0.0001  0.0001  0.2172  0.0000  0.0000  0.0000  0.0000  0.0000 </r>
       </set>
       <set comment="band 3">
        <r>  0.1640  0.1297  0.1297  0.0466  0.0000  0.0000  0.0000  0.0000  0.0000 </r>
       </set>
       <set comment="band 4">
        <r>  0.0000  0.2776  0.2776  0.0000  0.0000  0.0000  0.0000  0.0000  0.0000 </r>
       </set>
      </set>
      <set comment="kpoint 270">
       <set comment="band 1">
        <r>  0.6667  0.0274  0.0274  0.0000  0.0000  0.0000  0.0000  0.0000  0.0000 </r>
       </set>
       <set comment="band 2">
        <r>  0.0000  0.0000  0.0000  0.2354  0.0000  0.0000  0.0000  0.0000  0.0000 </r>
       </set>
       <set comment="band 3">
        <r>  0.2029  0.1457  0.1457  0.0000  0.0000  0.0000  0.0000  0.0000  0.0000 </r>
       </set>
       <set comment="band 4">
        <r>  0.0000  0.3631  0.3631  0.0000  0.0000  0.0000  0.0000  0.0000  0.0000 </r>
       </set>
      </set>
      <set comment="kpoint 271">
       <set comment="band 1">
        <r>  0.5972  0.0224  0.0247  0.0224  0.0000  0.0000  0.0000  0.0000  0.0000 </r>
       </set>
       <set comment="band 2">
        <r>  0.1970  0.0657  0.0013  0.0657  0.0000  0.0000  0.0000  0.0000  0.0000 </r>
       </set>
       <set comment="band 3">
        <r>  0.0000  0.2118  0.0000  0.2118  0.0000  0.0000  0.0000  0.0000  0.0000 </r>
       </set>
       <set comment="band 4">
        <r>  0.0370  0.0351  0.3784  0.0351  0.0000  0.0000  0.0000  0.0000  0.0000 </r>
       </set>
      </set>
      <set comment="kpoint 272">
       <set comment="band 1">
        <r>  0.6657  0.0220  0.0276  0.0101  0.0000  0.0000  0.0000  0.0000  0.0000 </r>
       </set>
       <set comment="band 2">
        <r>  0.0691  0.0035  0.0000  0.2142  0.0000  0.0000  0.0000  0.0000  0.0000 </r>
       </set>
       <set comment="band 3">
        <r>  0.0730  0.3020  0.0069  0.0633  0.0000  0.0000  0.0000  0.0000  0.0000 </r>
       </set>
       <set comment="band 4">
        <r>  0.0548  0.0403  0.3996  0.0001  0.0000  0.0000  0.0000  0.0000  0.0000 </r>
       </set>
      </set>
      <set comment="kpoint 273">
       <set comment="band 1">
        <r>  0.7101  0.0231  0.0299  0.0000  0.0000  0.0000  0.0000  0.0000  0.0000 </r>
       </set>
       <set comment="band 2">
        <r>  0.0000  0.0000  0.0000  0.2580  0.0000  0.0000  0.0000  0.0000  0.0000 </r>
       </set>
       <set comment="band 3">
        <r>  0.1218  0.3461  0.0127  0.0000  0.0000  0.0000  0.0000  0.0000  0.0000 </r>
       </set>
       <set comment="band 4">
        <r>  0.0000  0.0000  0.0000  0.1910  0.0000  0.0000  0.0000  0.0000  0.0000 </r>
       </set>
      </set>
      <set comment="kpoint 274">
       <set comment="band 1">
        <r>  0.7294  0.0100  0.0295  0.0100  0.0000  0.0000  0.0000  0.0000  0.0000 </r>
       </set>
       <set comment="band 2">
        <r>  0.0662  0.1136  0.0000  0.1136  0.0000  0.0000  0.0000  0.0000  0.0000 </r>
       </set>
       <set comment="band 3">
        <r>  0.0000  0.2135  0.0000  0.2135  0.0000  0.0000  0.0000  0.0000  0.0000 </r>
       </set>
       <set comment="band 4">
        <r>  0.0227  0.0733  0.0128  0.0733  0.0000  0.0000  0.0000  0.0000  0.0000 </r>
       </set>
      </set>
      <set comment="kpoint 275">
       <set comment="band 1">
        <r>  0.7678  0.0094  0.0296  0.0000  0.0000  0.0000  0.0000  0.0000  0.0000 </r>
       </set>
       <set comment="band 2">
        <r>  0.0000  0.0000  0.0000  0.2994  0.0000  0.0000  0.0000  0.0000  0.0000 </r>
       </set>
       <set comment="band 3">
        <r>  0.0391  0.4027  0.0006  0.0000  0.0000  0.0000  0.0000  0.0000  0.0000 </r>
       </set>
       <set comment="band 4">
        <r>  0.0000  0.0000  0.0000  0.1297  0.0000  0.0000  0.0000  0.0000  0.0000 </r>
       </set>
      </set>
      <set comment="kpoint 276">
       <set comment="band 1">
        <r>  0.8002  0.0000  0.0328  0.0000  0.0000  0.0000  0.0000  0.0000  0.0000 </r>
       </set>
       <set comment="band 2">
        <r>  0.0000  0.2137  0.0000  0.2137  0.0000  0.0000  0.0000  0.0000  0.0000 </r>
       </set>
       <set comment="band 3">
        <r>  0.0000  0.2137  0.0000  0.2137  0.0000  0.0000  0.0000  0.0000  0.0000 </r>
       </set>
       <set comment="band 4">
        <r>  0.0000  0.0000  0.0000  0.0000  0.0000  0.0000  0.0000  0.0000  0.0000 </r>
       </set>
      </set>
      <set comment="kpoint 277">
       <set comment="band 1">
        <r>  0.6458  0.0224  0.0224  0.0224  0.0000  0.0000  0.0000  0.0000  0.0000 </r>
       </set>
       <set comment="band 2">
        <r>  0.1926  0.0436  0.0436  0.0436  0.0000  0.0000  0.0000  0.0000  0.0000 </r>
       </set>
       <set comment="band 3">
        <r>  0.0000  0.0768  0.3072  0.0768  0.0000  0.0000  0.0000  0.0000  0.0000 </r>
       </set>
       <set comment="band 4">
        <r>  0.0000  0.2304  0.0000  0.2304  0.0000  0.0000  0.0000  0.0000  0.0000 </r>
       </set>
      </set>
      <set comment="kpoint 278">
       <set comment="band 1">
        <r>  0.7133  0.0225  0.0225  0.0114  0.0000  0.0000  0.0000  0.0000  0.0000 </r>
       </set>
       <set comment="band 2">
        <r>  0.0754  0.0057  0.0057  0.2080  0.0000  0.0000  0.0000  0.0000  0.0000 </r>
       </set>
       <set comment="band 3">
        <r>  0.0719  0.1400  0.1400  0.1016  0.0000  0.0000  0.0000  0.0000  0.0000 </r>
       </set>
       <set comment="band 4">
        <r>  0.0000  0.2739  0.2739  0.0000  0.0000  0.0000  0.0000  0.0000  0.0000 </r>
       </set>
      </set>
      <set comment="kpoint 279">
       <set comment="band 1">
        <r>  0.7545  0.0236  0.0236  0.0000  0.0000  0.0000  0.0000  0.0000  0.0000 </r>
       </set>
       <set comment="band 2">
        <r>  0.0000  0.0000  0.0000  0.2758  0.0000  0.0000  0.0000  0.0000  0.0000 </r>
       </set>
       <set comment="band 3">
        <r>  0.1282  0.1686  0.1686  0.0000  0.0000  0.0000  0.0000  0.0000  0.0000 </r>
       </set>
       <set comment="band 4">
        <r>  0.0000  0.3591  0.3591  0.0000  0.0000  0.0000  0.0000  0.0000  0.0000 </r>
       </set>
      </set>
      <set comment="kpoint 280">
       <set comment="band 1">
        <r>  0.7749  0.0101  0.0228  0.0101  0.0000  0.0000  0.0000  0.0000  0.0000 </r>
       </set>
       <set comment="band 2">
        <r>  0.0667  0.1164  0.0067  0.1164  0.0000  0.0000  0.0000  0.0000  0.0000 </r>
       </set>
       <set comment="band 3">
        <r>  0.0000  0.2287  0.0000  0.2287  0.0000  0.0000  0.0000  0.0000  0.0000 </r>
       </set>
       <set comment="band 4">
        <r>  0.0389  0.0150  0.4748  0.0150  0.0000  0.0000  0.0000  0.0000  0.0000 </r>
       </set>
      </set>
      <set comment="kpoint 281">
       <set comment="band 1">
        <r>  0.8100  0.0095  0.0222  0.0000  0.0000  0.0000  0.0000  0.0000  0.0000 </r>
       </set>
       <set comment="band 2">
        <r>  0.0000  0.0000  0.0000  0.3214  0.0000  0.0000  0.0000  0.0000  0.0000 </r>
       </set>
       <set comment="band 3">
        <r>  0.0429  0.4083  0.0137  0.0000  0.0000  0.0000  0.0000  0.0000  0.0000 </r>
       </set>
       <set comment="band 4">
        <r>  0.0000  0.0000  0.0000  0.1438  0.0000  0.0000  0.0000  0.0000  0.0000 </r>
       </set>
      </set>
      <set comment="kpoint 282">
       <set comment="band 1">
        <r>  0.8412  0.0000  0.0166  0.0000  0.0000  0.0000  0.0000  0.0000  0.0000 </r>
       </set>
       <set comment="band 2">
        <r>  0.0000  0.2239  0.0000  0.2240  0.0000  0.0000  0.0000  0.0000  0.0000 </r>
       </set>
       <set comment="band 3">
        <r>  0.0000  0.2240  0.0000  0.2239  0.0000  0.0000  0.0000  0.0000  0.0000 </r>
       </set>
       <set comment="band 4">
        <r>  0.0000  0.0000  0.0000  0.0000  0.0000  0.0000  0.0000  0.0000  0.0000 </r>
       </set>
      </set>
      <set comment="kpoint 283">
       <set comment="band 1">
        <r>  0.8303  0.0089  0.0089  0.0089  0.0000  0.0000  0.0000  0.0000  0.0000 </r>
       </set>
       <set comment="band 2">
        <r>  0.0558  0.0935  0.0935  0.0935  0.0000  0.0000  0.0000  0.0000  0.0000 </r>
       </set>
       <set comment="band 3">
        <r>  0.0000  0.0894  0.3577  0.0894  0.0000  0.0000  0.0000  0.0000  0.0000 </r>
       </set>
       <set comment="band 4">
        <r>  0.0000  0.2683  0.0000  0.2683  0.0000  0.0000  0.0000  0.0000  0.0000 </r>
       </set>
      </set>
      <set comment="kpoint 284">
       <set comment="band 1">
        <r>  0.8598  0.0083  0.0083  0.0000  0.0000  0.0000  0.0000  0.0000  0.0000 </r>
       </set>
       <set comment="band 2">
        <r>  0.0000  0.0000  0.0000  0.3788  0.0000  0.0000  0.0000  0.0000  0.0000 </r>
       </set>
       <set comment="band 3">
        <r>  0.0406  0.2286  0.2286  0.0000  0.0000  0.0000  0.0000  0.0000  0.0000 </r>
       </set>
       <set comment="band 4">
        <r>  0.0000  0.3551  0.3551  0.0000  0.0000  0.0000  0.0000  0.0000  0.0000 </r>
       </set>
      </set>
      <set comment="kpoint 285">
       <set comment="band 1">
        <r>  0.8859  0.0000  0.0064  0.0000  0.0000  0.0000  0.0000  0.0000  0.0000 </r>
       </set>
       <set comment="band 2">
        <r>  0.0000  0.2670  0.0000  0.2669  0.0000  0.0000  0.0000  0.0000  0.0000 </r>
       </set>
       <set comment="band 3">
        <r>  0.0000  0.2669  0.0000  0.2670  0.0000  0.0000  0.0000  0.0000  0.0000 </r>
       </set>
       <set comment="band 4">
        <r>  0.0224  0.0000  0.7090  0.0000  0.0000  0.0000  0.0000  0.0000  0.0000 </r>
       </set>
      </set>
      <set comment="kpoint 286">
       <set comment="band 1">
        <r>  0.9084  0.0000  0.0000  0.0000  0.0000  0.0000  0.0000  0.0000  0.0000 </r>
       </set>
       <set comment="band 2">
        <r>  0.0000  0.0017  0.7054  0.0017  0.0000  0.0000  0.0000  0.0000  0.0000 </r>
       </set>
       <set comment="band 3">
        <r>  0.0000  0.3527  0.0034  0.3527  0.0000  0.0000  0.0000  0.0000  0.0000 </r>
       </set>
       <set comment="band 4">
        <r>  0.0000  0.0000  0.0000  0.0000  0.0000  0.0000  0.0000  0.0000  0.0000 </r>
       </set>
      </set>
     </set>
    </set>
   </array>
  </projected>
 </calculation>
 <structure name="finalpos" >
  <crystal>
   <varray name="basis" >
    <v>       1.43536055      -0.00000000       0.00000000 </v>
    <v>       0.00000000       1.43536055      -0.00000000 </v>
    <v>       0.00000000       0.00000000       1.43536055 </v>
   </varray>
   <i name="volume">      2.95721580 </i>
   <varray name="rec_basis" >
    <v>       0.69668907      -0.00000000      -0.00000000 </v>
    <v>       0.00000000       0.69668907      -0.00000000 </v>
    <v>      -0.00000000       0.00000000       0.69668907 </v>
   </varray>
  </crystal>
  <varray name="positions" >
   <v>       0.00000000       0.00000000       0.00000000 </v>
  </varray>
 </structure>
</modeling>
