    1    1    1    1
  0.2957216E+01  0.1435361E-09  0.1435361E-09  0.1435361E-09  0.5000000E-15
  1.000000000000000E-004
  CAR 
 jump2                                   
    1  286    4
 
  0.3742002E-15  0.3742002E-15  0.3742002E-15  0.1250000E-03
   1      -13.603556
   2       50.143749
   3       61.606505
   4       61.606505
 
  0.5000000E-01  0.3742002E-15  0.3742002E-15  0.7500000E-03
   1      -13.427352
   2       48.701083
   3       57.953349
   4       61.787561
 
  0.1000000E+00  0.3742002E-15  0.3742002E-15  0.7500000E-03
   1      -12.899415
   2       44.422109
   3       56.459797
   4       62.330490
 
  0.1500000E+00  0.3742002E-15  0.3742002E-15  0.7500000E-03
   1      -12.025777
   2       38.898391
   3       56.655518
   4       63.233025
 
  0.2000000E+00  0.3742002E-15  0.3742002E-15  0.7500000E-03
   1      -10.804600
   2       33.323425
   3       57.555791
   4       64.496291
 
  0.2500000E+00  0.3742002E-15  0.3742002E-15  0.7500000E-03
   1       -9.247352
   2       27.962838
   3       58.885790
   4       66.115771
 
  0.3000000E+00  0.3742002E-15  0.3742002E-15  0.7500000E-03
   1       -7.371217
   2       22.929393
   3       60.532690
   4       68.084967
 
  0.3500000E+00  0.3742002E-15  0.3742002E-15  0.7500000E-03
   1       -5.221476
   2       18.288493
   3       62.356251
   4       70.376297
 
  0.4000000E+00  0.3742002E-15  0.3742002E-15  0.7500000E-03
   1       -2.880309
   2       14.172883
   3       64.259688
   4       72.969832
 
  0.4500000E+00  0.3742002E-15  0.3742002E-15  0.7500000E-03
   1       -0.668965
   2       10.872624
   3       65.825788
   4       75.674192
 
  0.5000000E+00  0.3742002E-15  0.3742002E-15  0.3750000E-03
   1        0.431418
   2        9.415934
   3       66.491383
   4       77.338842
 
  0.5000000E-01  0.5000000E-01  0.3742002E-15  0.1500000E-02
   1      -13.251169
   2       47.828829
   3       55.597391
   4       60.425126
 
  0.1000000E+00  0.5000000E-01  0.3742002E-15  0.3000000E-02
   1      -12.723298
   2       44.312770
   3       53.623716
   4       60.722990
 
  0.1500000E+00  0.5000000E-01  0.3742002E-15  0.3000000E-02
   1      -11.848299
   2       39.008181
   3       53.689818
   4       61.559733
 
  0.2000000E+00  0.5000000E-01  0.3742002E-15  0.3000000E-02
   1      -10.630363
   2       33.467044
   3       54.586798
   4       62.773344
 
  0.2500000E+00  0.5000000E-01  0.3742002E-15  0.3000000E-02
   1       -9.073543
   2       28.123523
   3       55.965179
   4       64.339596
 
  0.3000000E+00  0.5000000E-01  0.3742002E-15  0.3000000E-02
   1       -7.198027
   2       23.097518
   3       57.693305
   4       66.237441
 
  0.3500000E+00  0.5000000E-01  0.3742002E-15  0.3000000E-02
   1       -5.045348
   2       18.465329
   3       59.669927
   4       68.423298
 
  0.4000000E+00  0.5000000E-01  0.3742002E-15  0.3000000E-02
   1       -2.704879
   2       14.352004
   3       61.765894
   4       70.844583
 
  0.4500000E+00  0.5000000E-01  0.3742002E-15  0.3000000E-02
   1       -0.489677
   2       11.059116
   3       63.598918
   4       73.286637
 
  0.5000000E+00  0.5000000E-01  0.3742002E-15  0.1500000E-02
   1        0.608743
   2        9.597942
   3       64.415072
   4       75.361277
 
  0.1000000E+00  0.1000000E+00  0.3742002E-15  0.1500000E-02
   1      -12.198668
   2       43.167005
   3       49.420961
   4       60.846410
 
  0.1500000E+00  0.1000000E+00  0.3742002E-15  0.3000000E-02
   1      -11.322759
   2       39.159745
   3       48.256791
   4       61.622530
 
  0.2000000E+00  0.1000000E+00  0.3742002E-15  0.3000000E-02
   1      -10.103898
   2       33.881811
   3       48.946349
   4       62.792678
 
  0.2500000E+00  0.1000000E+00  0.3742002E-15  0.3000000E-02
   1       -8.545195
   2       28.608567
   3       50.304419
   4       64.313174
 
  0.3000000E+00  0.1000000E+00  0.3742002E-15  0.3000000E-02
   1       -6.670936
   2       23.608416
   3       52.075562
   4       66.128962
 
  0.3500000E+00  0.1000000E+00  0.3742002E-15  0.3000000E-02
   1       -4.520231
   2       18.988932
   3       54.153534
   4       68.137108
 
  0.4000000E+00  0.1000000E+00  0.3742002E-15  0.3000000E-02
   1       -2.186657
   2       14.875693
   3       56.412769
   4       69.968718
 
  0.4500000E+00  0.1000000E+00  0.3742002E-15  0.3000000E-02
   1        0.026419
   2       11.598526
   3       58.536721
   4       69.683603
 
  0.5000000E+00  0.1000000E+00  0.3742002E-15  0.1500000E-02
   1        1.133523
   2       10.147201
   3       59.572797
   4       68.660310
 
  0.1500000E+00  0.1500000E+00  0.3742002E-15  0.1500000E-02
   1      -10.447565
   2       38.319341
   3       43.943214
   4       62.370715
 
  0.2000000E+00  0.1500000E+00  0.3742002E-15  0.3000000E-02
   1       -9.224942
   2       34.415245
   3       43.309496
   4       63.516923
 
  0.2500000E+00  0.1500000E+00  0.3742002E-15  0.3000000E-02
   1       -7.672112
   2       29.375438
   3       44.439446
   4       64.982841
 
  0.3000000E+00  0.1500000E+00  0.3742002E-15  0.3000000E-02
   1       -5.800216
   2       24.444916
   3       46.168915
   4       66.675154
 
  0.3500000E+00  0.1500000E+00  0.3742002E-15  0.3000000E-02
   1       -3.656007
   2       19.845059
   3       48.261052
   4       68.069488
 
  0.4000000E+00  0.1500000E+00  0.3742002E-15  0.3000000E-02
   1       -1.326004
   2       15.758306
   3       50.589669
   4       66.659063
 
  0.4500000E+00  0.1500000E+00  0.3742002E-15  0.3000000E-02
   1        0.876851
   2       12.496483
   3       52.841238
   4       63.729446
 
  0.5000000E+00  0.1500000E+00  0.3742002E-15  0.1500000E-02
   1        1.974758
   2       11.055320
   3       53.990030
   4       62.290018
 
  0.2000000E+00  0.2000000E+00  0.3742002E-15  0.1500000E-02
   1       -8.010407
   2       33.944267
   3       39.201755
   4       64.614787
 
  0.2500000E+00  0.2000000E+00  0.3742002E-15  0.3000000E-02
   1       -6.458266
   2       30.272007
   3       38.986850
   4       65.964603
 
  0.3000000E+00  0.2000000E+00  0.3742002E-15  0.3000000E-02
   1       -4.591953
   2       25.567931
   3       40.496296
   4       67.018924
 
  0.3500000E+00  0.2000000E+00  0.3742002E-15  0.3000000E-02
   1       -2.449978
   2       21.042689
   3       42.548694
   4       64.954865
 
  0.4000000E+00  0.2000000E+00  0.3742002E-15  0.3000000E-02
   1       -0.133927
   2       16.985831
   3       44.888737
   4       61.153477
 
  0.4500000E+00  0.2000000E+00  0.3742002E-15  0.3000000E-02
   1        2.062606
   2       13.750767
   3       47.202280
   4       57.836534
 
  0.5000000E+00  0.2000000E+00  0.3742002E-15  0.1500000E-02
   1        3.141506
   2       12.325907
   3       48.444421
   4       56.279504
 
  0.2500000E+00  0.2500000E+00  0.3742002E-15  0.1500000E-02
   1       -4.909847
   2       30.194994
   3       35.188500
   4       66.666552
 
  0.3000000E+00  0.2500000E+00  0.3742002E-15  0.3000000E-02
   1       -3.046950
   2       26.840090
   3       35.375121
   4       64.170162
 
  0.3500000E+00  0.2500000E+00  0.3742002E-15  0.3000000E-02
   1       -0.916185
   2       22.529955
   3       37.226007
   4       59.821124
 
  0.4000000E+00  0.2500000E+00  0.3742002E-15  0.3000000E-02
   1        1.391931
   2       18.544285
   3       39.521242
   4       55.678029
 
  0.4500000E+00  0.2500000E+00  0.3742002E-15  0.3000000E-02
   1        3.552456
   2       15.355595
   3       41.857451
   4       52.249128
 
  0.5000000E+00  0.2500000E+00  0.3742002E-15  0.1500000E-02
   1        4.605127
   2       13.957422
   3       43.110202
   4       50.631980
 
  0.3000000E+00  0.3000000E+00  0.3742002E-15  0.1500000E-02
   1       -1.198458
   2       27.135599
   3       31.902147
   4       59.378132
 
  0.3500000E+00  0.3000000E+00  0.3742002E-15  0.3000000E-02
   1        0.931177
   2       24.161026
   3       32.458705
   4       54.744625
 
  0.4000000E+00  0.3000000E+00  0.3742002E-15  0.3000000E-02
   1        3.208715
   2       20.404063
   3       34.585495
   4       50.528563
 
  0.4500000E+00  0.3000000E+00  0.3742002E-15  0.3000000E-02
   1        5.332366
   2       17.304054
   3       36.915961
   4       47.031097
 
  0.5000000E+00  0.3000000E+00  0.3742002E-15  0.1500000E-02
   1        6.355123
   2       15.947744
   3       38.207420
   4       45.357515
 
  0.3500000E+00  0.3500000E+00  0.3742002E-15  0.1500000E-02
   1        3.034097
   2       24.911029
   3       29.347609
   4       50.026841
 
  0.4000000E+00  0.3500000E+00  0.3742002E-15  0.3000000E-02
   1        5.278696
   2       22.440745
   3       30.246588
   4       45.760964
 
  0.4500000E+00  0.3500000E+00  0.3742002E-15  0.3000000E-02
   1        7.339170
   2       19.570567
   3       32.453596
   4       42.199068
 
  0.5000000E+00  0.3500000E+00  0.3742002E-15  0.1500000E-02
   1        8.316589
   2       18.290476
   3       33.776840
   4       40.460112
 
  0.4000000E+00  0.4000000E+00  0.3742002E-15  0.1500000E-02
   1        7.472136
   2       23.710003
   3       27.522882
   4       41.444231
 
  0.4500000E+00  0.4000000E+00  0.3742002E-15  0.3000000E-02
   1        9.443667
   2       22.071053
   3       28.665379
   4       37.799484
 
  0.5000000E+00  0.4000000E+00  0.3742002E-15  0.1500000E-02
   1       10.343711
   2       20.967497
   3       29.979337
   4       35.958235
 
  0.4500000E+00  0.4500000E+00  0.3742002E-15  0.1500000E-02
   1       11.289310
   2       24.116686
   3       26.428031
   4       33.998823
 
  0.5000000E+00  0.4500000E+00  0.3742002E-15  0.1500000E-02
   1       12.108414
   2       23.896358
   3       27.171521
   4       31.935190
 
  0.5000000E+00  0.5000000E+00  0.3742002E-15  0.3750000E-03
   1       12.880657
   2       26.063078
   3       26.063078
   4       29.409082
 
  0.5000000E-01  0.5000000E-01  0.5000000E-01  0.1000000E-02
   1      -13.075008
   2       47.183553
   3       55.778763
   4       55.778763
 
  0.1000000E+00  0.5000000E-01  0.5000000E-01  0.3000000E-02
   1      -12.547202
   2       44.201251
   3       52.948632
   4       56.322707
 
  0.1500000E+00  0.5000000E-01  0.5000000E-01  0.3000000E-02
   1      -11.670850
   2       39.115744
   3       52.727226
   4       57.227919
 
  0.2000000E+00  0.5000000E-01  0.5000000E-01  0.3000000E-02
   1      -10.456153
   2       33.610027
   3       53.533395
   4       58.487325
 
  0.2500000E+00  0.5000000E-01  0.5000000E-01  0.3000000E-02
   1       -8.899763
   2       28.283980
   3       54.873466
   4       60.112063
 
  0.3000000E+00  0.5000000E-01  0.5000000E-01  0.3000000E-02
   1       -7.024868
   2       23.265541
   3       56.578257
   4       62.090505
 
  0.3500000E+00  0.5000000E-01  0.5000000E-01  0.3000000E-02
   1       -4.869241
   2       18.642134
   3       58.548008
   4       64.411663
 
  0.4000000E+00  0.5000000E-01  0.5000000E-01  0.3000000E-02
   1       -2.531301
   2       14.526975
   3       60.623725
   4       67.043924
 
  0.4500000E+00  0.5000000E-01  0.5000000E-01  0.3000000E-02
   1       -0.318066
   2       11.237210
   3       62.450877
   4       69.849587
 
  0.5000000E+00  0.5000000E-01  0.5000000E-01  0.1500000E-02
   1        0.794501
   2        9.781999
   3       63.285002
   4       71.707058
 
  0.1000000E+00  0.1000000E+00  0.5000000E-01  0.3000000E-02
   1      -12.022644
   2       43.106345
   3       49.602349
   4       55.415361
 
  0.1500000E+00  0.1000000E+00  0.5000000E-01  0.6000000E-02
   1      -11.145374
   2       39.259535
   3       48.332057
   4       56.123750
 
  0.2000000E+00  0.1000000E+00  0.5000000E-01  0.6000000E-02
   1       -9.923818
   2       34.040281
   3       48.959653
   4       57.317849
 
  0.2500000E+00  0.1000000E+00  0.5000000E-01  0.6000000E-02
   1       -8.371501
   2       28.768317
   3       50.285366
   4       58.878348
 
  0.3000000E+00  0.1000000E+00  0.5000000E-01  0.6000000E-02
   1       -6.497873
   2       23.776135
   3       52.033945
   4       60.796917
 
  0.3500000E+00  0.1000000E+00  0.5000000E-01  0.6000000E-02
   1       -4.345577
   2       19.160893
   3       54.088296
   4       63.030650
 
  0.4000000E+00  0.1000000E+00  0.5000000E-01  0.6000000E-02
   1       -2.009623
   2       15.058649
   3       56.319287
   4       65.507687
 
  0.4500000E+00  0.1000000E+00  0.5000000E-01  0.6000000E-02
   1        0.200592
   2       11.779502
   3       58.382444
   4       67.936878
 
  0.5000000E+00  0.1000000E+00  0.5000000E-01  0.3000000E-02
   1        1.301706
   2       10.327084
   3       59.369906
   4       68.826465
 
  0.1500000E+00  0.1500000E+00  0.5000000E-01  0.3000000E-02
   1      -10.268802
   2       38.427597
   3       44.130805
   4       56.736578
 
  0.2000000E+00  0.1500000E+00  0.5000000E-01  0.6000000E-02
   1       -9.051065
   2       34.551508
   3       43.450714
   4       57.884312
 
  0.2500000E+00  0.1500000E+00  0.5000000E-01  0.6000000E-02
   1       -7.500304
   2       29.531708
   3       44.558896
   4       59.405149
 
  0.3000000E+00  0.1500000E+00  0.5000000E-01  0.6000000E-02
   1       -5.629109
   2       24.610859
   3       46.276546
   4       61.269914
 
  0.3500000E+00  0.1500000E+00  0.5000000E-01  0.6000000E-02
   1       -3.480708
   2       20.025264
   3       48.362521
   4       63.382632
 
  0.4000000E+00  0.1500000E+00  0.5000000E-01  0.6000000E-02
   1       -1.150882
   2       15.937229
   3       50.689438
   4       65.227428
 
  0.4500000E+00  0.1500000E+00  0.5000000E-01  0.6000000E-02
   1        1.055824
   2       12.677483
   3       52.919859
   4       63.808096
 
  0.5000000E+00  0.1500000E+00  0.5000000E-01  0.3000000E-02
   1        2.151861
   2       11.237323
   3       54.050609
   4       62.468154
 
  0.2000000E+00  0.2000000E+00  0.5000000E-01  0.3000000E-02
   1       -7.835046
   2       34.081457
   3       39.383106
   4       59.004700
 
  0.2500000E+00  0.2000000E+00  0.5000000E-01  0.6000000E-02
   1       -6.284973
   2       30.426592
   3       39.154439
   4       60.489062
 
  0.3000000E+00  0.2000000E+00  0.5000000E-01  0.6000000E-02
   1       -4.420581
   2       25.727945
   3       40.653562
   4       62.253165
 
  0.3500000E+00  0.2000000E+00  0.5000000E-01  0.6000000E-02
   1       -2.275025
   2       21.219671
   3       42.714100
   4       63.650915
 
  0.4000000E+00  0.2000000E+00  0.5000000E-01  0.6000000E-02
   1        0.048088
   2       17.165057
   3       45.049575
   4       61.215305
 
  0.4500000E+00  0.2000000E+00  0.5000000E-01  0.6000000E-02
   1        2.231212
   2       13.931030
   3       47.341745
   4       57.991120
 
  0.5000000E+00  0.2000000E+00  0.5000000E-01  0.3000000E-02
   1        3.312964
   2       12.507780
   3       48.544829
   4       56.458489
 
  0.2500000E+00  0.2500000E+00  0.5000000E-01  0.3000000E-02
   1       -4.738736
   2       30.343016
   3       35.369172
   4       61.878345
 
  0.3000000E+00  0.2500000E+00  0.5000000E-01  0.6000000E-02
   1       -2.876114
   2       26.996596
   3       35.548074
   4       62.896459
 
  0.3500000E+00  0.2500000E+00  0.5000000E-01  0.6000000E-02
   1       -0.741506
   2       22.698165
   3       37.388266
   4       59.867550
 
  0.4000000E+00  0.2500000E+00  0.5000000E-01  0.6000000E-02
   1        1.562556
   2       18.724029
   3       39.691696
   4       55.836858
 
  0.4500000E+00  0.2500000E+00  0.5000000E-01  0.6000000E-02
   1        3.731690
   2       15.537242
   3       42.027129
   4       52.427014
 
  0.5000000E+00  0.2500000E+00  0.5000000E-01  0.3000000E-02
   1        4.781362
   2       14.139414
   3       43.265701
   4       50.813228
 
  0.3000000E+00  0.3000000E+00  0.5000000E-01  0.3000000E-02
   1       -1.021190
   2       27.305484
   3       32.083924
   4       59.450148
 
  0.3500000E+00  0.3000000E+00  0.5000000E-01  0.6000000E-02
   1        1.093955
   2       24.327632
   3       32.632230
   4       54.891071
 
  0.4000000E+00  0.3000000E+00  0.5000000E-01  0.6000000E-02
   1        3.386254
   2       20.582592
   3       34.758685
   4       50.698198
 
  0.4500000E+00  0.3000000E+00  0.5000000E-01  0.6000000E-02
   1        5.508791
   2       17.484848
   3       37.085662
   4       47.208470
 
  0.5000000E+00  0.3000000E+00  0.5000000E-01  0.3000000E-02
   1        6.530676
   2       16.129726
   3       38.373922
   4       45.539096
 
  0.3500000E+00  0.3500000E+00  0.5000000E-01  0.3000000E-02
   1        3.200835
   2       25.074577
   3       29.528232
   4       50.192509
 
  0.4000000E+00  0.3500000E+00  0.5000000E-01  0.6000000E-02
   1        5.447011
   2       22.613017
   3       30.422012
   4       45.934230
 
  0.4500000E+00  0.3500000E+00  0.5000000E-01  0.6000000E-02
   1        7.511521
   2       19.750956
   3       32.625550
   4       42.378013
 
  0.5000000E+00  0.3500000E+00  0.5000000E-01  0.3000000E-02
   1        8.491123
   2       18.472442
   3       33.949186
   4       40.641864
 
  0.4000000E+00  0.4000000E+00  0.5000000E-01  0.3000000E-02
   1        7.638073
   2       23.880287
   3       27.703491
   4       41.620824
 
  0.4500000E+00  0.4000000E+00  0.5000000E-01  0.6000000E-02
   1        9.605946
   2       22.248501
   3       28.841525
   4       37.978852
 
  0.5000000E+00  0.4000000E+00  0.5000000E-01  0.3000000E-02
   1       10.509039
   2       21.149285
   3       30.151356
   4       36.139882
 
  0.4500000E+00  0.4500000E+00  0.5000000E-01  0.3000000E-02
   1       11.443786
   2       24.292332
   3       26.608631
   4       34.178684
 
  0.5000000E+00  0.4500000E+00  0.5000000E-01  0.3000000E-02
   1       12.248740
   2       24.077430
   3       27.348528
   4       32.116896
 
  0.5000000E+00  0.5000000E+00  0.5000000E-01  0.7500000E-03
   1       13.017835
   2       26.243676
   3       26.243676
   4       29.591278
 
  0.1000000E+00  0.1000000E+00  0.1000000E+00  0.1000000E-02
   1      -11.501420
   2       42.394538
   3       50.138960
   4       50.138960
 
  0.1500000E+00  0.1000000E+00  0.1000000E+00  0.3000000E-02
   1      -10.623246
   2       39.368781
   3       47.835033
   4       51.044607
 
  0.2000000E+00  0.1000000E+00  0.1000000E+00  0.3000000E-02
   1       -9.394824
   2       34.455031
   3       48.115629
   4       52.315140
 
  0.2500000E+00  0.1000000E+00  0.1000000E+00  0.3000000E-02
   1       -7.843455
   2       29.250516
   3       49.316697
   4       53.940063
 
  0.3000000E+00  0.1000000E+00  0.1000000E+00  0.3000000E-02
   1       -5.971114
   2       24.285879
   3       50.992267
   4       55.919232
 
  0.3500000E+00  0.1000000E+00  0.1000000E+00  0.3000000E-02
   1       -3.820919
   2       19.683640
   3       52.979727
   4       58.241816
 
  0.4000000E+00  0.1000000E+00  0.1000000E+00  0.3000000E-02
   1       -1.488276
   2       15.590108
   3       55.128602
   4       60.877114
 
  0.4500000E+00  0.1000000E+00  0.1000000E+00  0.3000000E-02
   1        0.718776
   2       12.316282
   3       57.077509
   4       63.690691
 
  0.5000000E+00  0.1000000E+00  0.1000000E+00  0.1500000E-02
   1        1.808476
   2       10.872168
   3       57.977853
   4       65.562060
 
  0.1500000E+00  0.1500000E+00  0.1000000E+00  0.3000000E-02
   1       -9.743042
   2       38.586784
   3       44.673772
   4       50.552716
 
  0.2000000E+00  0.1500000E+00  0.1000000E+00  0.6000000E-02
   1       -8.524318
   2       34.944748
   3       43.842347
   4       51.620259
 
  0.2500000E+00  0.1500000E+00  0.1000000E+00  0.6000000E-02
   1       -6.974550
   2       30.006960
   3       44.860918
   4       53.160157
 
  0.3000000E+00  0.1500000E+00  0.1000000E+00  0.6000000E-02
   1       -5.105973
   2       25.111849
   3       46.528806
   4       55.069481
 
  0.3500000E+00  0.1500000E+00  0.1000000E+00  0.6000000E-02
   1       -2.956712
   2       20.547096
   3       48.580507
   4       57.315055
 
  0.4000000E+00  0.1500000E+00  0.1000000E+00  0.6000000E-02
   1       -0.625362
   2       16.472067
   3       50.840204
   4       59.805180
 
  0.4500000E+00  0.1500000E+00  0.1000000E+00  0.6000000E-02
   1        1.568385
   2       13.216893
   3       52.972448
   4       62.253856
 
  0.5000000E+00  0.1500000E+00  0.1000000E+00  0.3000000E-02
   1        2.649170
   2       11.780364
   3       54.031556
   4       62.992475
 
  0.2000000E+00  0.2000000E+00  0.1000000E+00  0.3000000E-02
   1       -7.307295
   2       34.474148
   3       39.932565
   4       52.590235
 
  0.2500000E+00  0.2000000E+00  0.1000000E+00  0.6000000E-02
   1       -5.758222
   2       30.893295
   3       39.652853
   4       54.077736
 
  0.3000000E+00  0.2000000E+00  0.1000000E+00  0.6000000E-02
   1       -3.895350
   2       26.231843
   3       41.119531
   4       55.930020
 
  0.3500000E+00  0.2000000E+00  0.1000000E+00  0.6000000E-02
   1       -1.748914
   2       21.739343
   3       43.147790
   4       58.057376
 
  0.4000000E+00  0.2000000E+00  0.1000000E+00  0.6000000E-02
   1        0.563648
   2       17.693852
   3       45.448797
   4       59.949848
 
  0.4500000E+00  0.2000000E+00  0.1000000E+00  0.6000000E-02
   1        2.744668
   2       14.470313
   3       47.714305
   4       58.406227
 
  0.5000000E+00  0.2000000E+00  0.1000000E+00  0.3000000E-02
   1        3.817839
   2       13.052927
   3       48.878262
   4       56.997890
 
  0.2500000E+00  0.2500000E+00  0.1000000E+00  0.3000000E-02
   1       -4.215442
   2       30.785745
   3       35.911774
   4       55.519366
 
  0.3000000E+00  0.2500000E+00  0.1000000E+00  0.6000000E-02
   1       -2.350304
   2       27.487536
   3       36.058962
   4       57.282444
 
  0.3500000E+00  0.2500000E+00  0.1000000E+00  0.6000000E-02
   1       -0.220531
   2       23.220123
   3       37.884477
   4       58.735969
 
  0.4000000E+00  0.2500000E+00  0.1000000E+00  0.6000000E-02
   1        2.078066
   2       19.252944
   3       40.171414
   4       56.218590
 
  0.4500000E+00  0.2500000E+00  0.1000000E+00  0.6000000E-02
   1        4.239914
   2       16.076121
   3       42.496927
   4       52.934940
 
  0.5000000E+00  0.2500000E+00  0.1000000E+00  0.3000000E-02
   1        5.284429
   2       14.684544
   3       43.723232
   4       51.357278
 
  0.3000000E+00  0.3000000E+00  0.1000000E+00  0.3000000E-02
   1       -0.499136
   2       27.792007
   3       32.627616
   4       58.346947
 
  0.3500000E+00  0.3000000E+00  0.1000000E+00  0.6000000E-02
   1        1.615175
   2       24.842691
   3       33.162116
   4       55.279058
 
  0.4000000E+00  0.3000000E+00  0.1000000E+00  0.6000000E-02
   1        3.897976
   2       21.110777
   3       35.273610
   4       51.198215
 
  0.4500000E+00  0.3000000E+00  0.1000000E+00  0.6000000E-02
   1        6.009015
   2       18.022382
   3       37.577902
   4       47.734478
 
  0.5000000E+00  0.3000000E+00  0.1000000E+00  0.3000000E-02
   1        7.024815
   2       16.674690
   3       38.852470
   4       46.083088
 
  0.3500000E+00  0.3500000E+00  0.1000000E+00  0.3000000E-02
   1        3.718026
   2       25.579612
   3       30.071941
   4       50.684665
 
  0.4000000E+00  0.3500000E+00  0.1000000E+00  0.6000000E-02
   1        5.953538
   2       23.134158
   3       30.950996
   4       46.452071
 
  0.4500000E+00  0.3500000E+00  0.1000000E+00  0.6000000E-02
   1        8.009882
   2       20.287725
   3       33.141572
   4       42.911735
 
  0.5000000E+00  0.3500000E+00  0.1000000E+00  0.3000000E-02
   1        8.979981
   2       19.017334
   3       34.452266
   4       41.186488
 
  0.4000000E+00  0.4000000E+00  0.1000000E+00  0.3000000E-02
   1        8.138577
   2       24.396081
   3       28.247179
   4       42.150097
 
  0.4500000E+00  0.4000000E+00  0.1000000E+00  0.6000000E-02
   1       10.097411
   2       22.783466
   3       29.372828
   4       38.516629
 
  0.5000000E+00  0.4000000E+00  0.1000000E+00  0.3000000E-02
   1       10.997734
   2       21.694184
   3       30.675897
   4       36.685128
 
  0.4500000E+00  0.4500000E+00  0.1000000E+00  0.3000000E-02
   1       11.929692
   2       24.827162
   3       27.152307
   4       34.720814
 
  0.5000000E+00  0.4500000E+00  0.1000000E+00  0.3000000E-02
   1       12.729088
   2       24.622013
   3       27.885870
   4       32.662589
 
  0.5000000E+00  0.5000000E+00  0.1000000E+00  0.7500000E-03
   1       13.493234
   2       26.787347
   3       26.787347
   4       30.137919
 
  0.1500000E+00  0.1500000E+00  0.1500000E+00  0.1000000E-02
   1       -8.868971
   2       38.197876
   3       45.579381
   4       45.579381
 
  0.2000000E+00  0.1500000E+00  0.1500000E+00  0.3000000E-02
   1       -7.651383
   2       35.403774
   3       43.695809
   4       46.845865
 
  0.2500000E+00  0.1500000E+00  0.1500000E+00  0.3000000E-02
   1       -6.103226
   2       30.755416
   3       44.342093
   4       48.470807
 
  0.3000000E+00  0.1500000E+00  0.1500000E+00  0.3000000E-02
   1       -4.237261
   2       25.941188
   3       45.867728
   4       50.450046
 
  0.3500000E+00  0.1500000E+00  0.1500000E+00  0.3000000E-02
   1       -2.088813
   2       21.408892
   3       47.817022
   4       52.772840
 
  0.4000000E+00  0.1500000E+00  0.1500000E+00  0.3000000E-02
   1        0.230719
   2       17.353150
   3       49.969401
   4       55.408663
 
  0.4500000E+00  0.1500000E+00  0.1500000E+00  0.3000000E-02
   1        2.407008
   2       14.110416
   3       51.930719
   4       58.221649
 
  0.5000000E+00  0.1500000E+00  0.1500000E+00  0.1500000E-02
   1        3.477981
   2       12.688299
   3       52.860120
   4       60.094816
 
  0.2000000E+00  0.2000000E+00  0.1500000E+00  0.3000000E-02
   1       -6.435547
   2       34.962517
   3       40.838109
   4       46.731252
 
  0.2500000E+00  0.2000000E+00  0.1500000E+00  0.6000000E-02
   1       -4.889312
   2       31.610924
   3       40.395293
   4       48.151182
 
  0.3000000E+00  0.2000000E+00  0.1500000E+00  0.6000000E-02
   1       -3.023060
   2       27.054338
   3       41.762248
   4       50.030970
 
  0.3500000E+00  0.2000000E+00  0.1500000E+00  0.6000000E-02
   1       -0.887368
   2       22.596851
   3       43.720497
   4       52.257382
 
  0.4000000E+00  0.2000000E+00  0.1500000E+00  0.6000000E-02
   1        1.420097
   2       18.576976
   3       45.957351
   4       54.740308
 
  0.4500000E+00  0.2000000E+00  0.1500000E+00  0.6000000E-02
   1        3.585306
   2       15.366963
   3       48.107557
   4       57.192496
 
  0.5000000E+00  0.2000000E+00  0.1500000E+00  0.3000000E-02
   1        4.639786
   2       13.958914
   3       49.173027
   4       57.883986
 
  0.2500000E+00  0.2500000E+00  0.1500000E+00  0.3000000E-02
   1       -3.347347
   2       31.496818
   3       36.817457
   4       49.465018
 
  0.3000000E+00  0.2500000E+00  0.1500000E+00  0.6000000E-02
   1       -1.483237
   2       28.296523
   3       36.909978
   4       51.274130
 
  0.3500000E+00  0.2500000E+00  0.1500000E+00  0.6000000E-02
   1        0.640721
   2       24.073310
   3       38.691393
   4       53.382111
 
  0.4000000E+00  0.2500000E+00  0.1500000E+00  0.6000000E-02
   1        2.932103
   2       20.130435
   3       40.943883
   4       55.298098
 
  0.4500000E+00  0.2500000E+00  0.1500000E+00  0.6000000E-02
   1        5.074018
   2       16.972237
   3       43.207590
   4       53.705915
 
  0.5000000E+00  0.2500000E+00  0.1500000E+00  0.3000000E-02
   1        6.117156
   2       15.592738
   3       44.393883
   4       52.259433
 
  0.3000000E+00  0.3000000E+00  0.1500000E+00  0.3000000E-02
   1        0.361358
   2       28.578641
   3       33.533240
   4       52.980805
 
  0.3500000E+00  0.3000000E+00  0.1500000E+00  0.6000000E-02
   1        2.472353
   2       25.689133
   3       34.030363
   4       54.462061
 
  0.4000000E+00  0.3000000E+00  0.1500000E+00  0.6000000E-02
   1        4.739810
   2       21.983889
   3       36.112143
   4       51.932585
 
  0.4500000E+00  0.3000000E+00  0.1500000E+00  0.6000000E-02
   1        6.848950
   2       18.919283
   3       38.398693
   4       48.605036
 
  0.5000000E+00  0.3000000E+00  0.1500000E+00  0.3000000E-02
   1        7.859064
   2       17.582959
   3       39.663663
   4       46.990447
 
  0.3500000E+00  0.3500000E+00  0.1500000E+00  0.3000000E-02
   1        4.566410
   2       26.418042
   3       30.978696
   4       51.429642
 
  0.4000000E+00  0.3500000E+00  0.1500000E+00  0.6000000E-02
   1        6.796982
   2       24.001706
   3       31.830502
   4       47.301695
 
  0.4500000E+00  0.3500000E+00  0.1500000E+00  0.6000000E-02
   1        8.840021
   2       21.182396
   3       33.998070
   4       43.798812
 
  0.5000000E+00  0.3500000E+00  0.1500000E+00  0.3000000E-02
   1        9.800152
   2       19.925354
   3       35.291562
   4       42.093990
 
  0.4000000E+00  0.4000000E+00  0.1500000E+00  0.3000000E-02
   1        8.972215
   2       25.255437
   3       29.152764
   4       43.029217
 
  0.4500000E+00  0.4000000E+00  0.1500000E+00  0.6000000E-02
   1       10.916464
   2       23.675335
   3       30.257667
   4       39.412625
 
  0.5000000E+00  0.4000000E+00  0.1500000E+00  0.3000000E-02
   1       11.806624
   2       22.601979
   3       31.546460
   4       37.593474
 
  0.4500000E+00  0.4500000E+00  0.1500000E+00  0.3000000E-02
   1       12.733662
   2       25.717034
   3       28.057871
   4       35.623448
 
  0.5000000E+00  0.4500000E+00  0.1500000E+00  0.3000000E-02
   1       13.523377
   2       25.529227
   3       28.780084
   4       33.571793
 
  0.5000000E+00  0.5000000E+00  0.1500000E+00  0.7500000E-03
   1       14.278922
   2       27.692904
   3       27.692904
   4       31.048858
 
  0.2000000E+00  0.2000000E+00  0.2000000E+00  0.1000000E-02
   1       -5.221542
   2       34.909111