       N       E                     dE             d eps       ncg     rms          rms(c)
DAV:   1    -0.227523892176E+01   -0.22752E+01   -0.12990E+02  2880   0.624E+01
DAV:   2    -0.228463533909E+01   -0.93964E-02   -0.93591E-02  2772   0.269E+00
DAV:   3    -0.228463596997E+01   -0.63088E-06   -0.62458E-06  2676   0.176E-02
DAV:   4    -0.228463597014E+01   -0.16326E-09   -0.31079E-11  2296   0.336E-05
DAV:   5    -0.228463597000E+01    0.13262E-09   -0.10337E-14  1516   0.349E-07    0.236E-03
DAV:   6    -0.228463604618E+01   -0.76178E-07   -0.12989E-08  1252   0.106E-03
   1 F= -.22846360E+01 E0= -.22846360E+01  d E =0.000000E+00
