<?xml version="1.0" encoding="ISO-8859-1"?>
<modeling>
 <generator>
  <i name="program" type="string">vasp </i>
  <i name="version" type="string">5.2.12  </i>
  <i name="subversion" type="string">11Nov11 complex                                                      parallel </i>
  <i name="platform" type="string">LinuxIFC </i>
  <i name="date" type="string">2018 01 16 </i>
  <i name="time" type="string">21:15:44 </i>
 </generator>
 <incar>
  <i type="string" name="SYSTEM"> jump2</i>
  <i type="int" name="ISTART">     0</i>
  <i type="string" name="PREC">normal</i>
  <i type="string" name="ALGO"> 48</i>
  <i type="logical" name="ADDGRID"> T  </i>
  <i name="AMIN">      0.01000000</i>
  <i type="int" name="ICHARG">     1</i>
  <i type="int" name="IBRION">    -1</i>
  <i name="EDIFF">      0.00010000</i>
  <i name="EDIFFG">     -0.01000000</i>
  <i type="int" name="NSW">     0</i>
  <i type="int" name="ISIF">     2</i>
  <i name="ENCUT">    325.00000000</i>
  <i type="string" name="LREAL"> Auto</i>
  <i type="logical" name="LPLANE"> T  </i>
  <i type="int" name="ISMEAR">    -5</i>
  <i name="SIGMA">      0.10000000</i>
  <i name="KSPACING">      0.23000000</i>
  <i type="logical" name="LWAVE"> T  </i>
  <i type="logical" name="LCHARG"> T  </i>
  <i type="logical" name="LVTOT"> F  </i>
  <i type="logical" name="LVHAR"> F  </i>
  <i type="logical" name="LORBIT"> F  </i>
 </incar>
 <kpoints>
  <generation param="Gamma">
   <v type="int" name="divisions">      20       20       20 </v>
   <v name="usershift">      0.00000000       0.00000000       0.00000000 </v>
   <v name="genvec1">      0.05000000       0.00000000       0.00000000 </v>
   <v name="genvec2">      0.00000000       0.05000000       0.00000000 </v>
   <v name="genvec3">      0.00000000       0.00000000       0.05000000 </v>
   <v name="shift">      0.00000000       0.00000000       0.00000000 </v>
  </generation>
  <varray name="kpointlist" >
   <v>       0.00000000       0.00000000       0.00000000 </v>
   <v>       0.05000000       0.00000000       0.00000000 </v>
   <v>       0.10000000       0.00000000       0.00000000 </v>
   <v>       0.15000000       0.00000000       0.00000000 </v>
   <v>       0.20000000       0.00000000       0.00000000 </v>
   <v>       0.25000000       0.00000000       0.00000000 </v>
   <v>       0.30000000       0.00000000       0.00000000 </v>
   <v>       0.35000000       0.00000000       0.00000000 </v>
   <v>       0.40000000       0.00000000       0.00000000 </v>
   <v>       0.45000000       0.00000000       0.00000000 </v>
   <v>       0.50000000       0.00000000       0.00000000 </v>
   <v>       0.05000000       0.05000000       0.00000000 </v>
   <v>       0.10000000       0.05000000       0.00000000 </v>
   <v>       0.15000000       0.05000000       0.00000000 </v>
   <v>       0.20000000       0.05000000       0.00000000 </v>
   <v>       0.25000000       0.05000000       0.00000000 </v>
   <v>       0.30000000       0.05000000       0.00000000 </v>
   <v>       0.35000000       0.05000000       0.00000000 </v>
   <v>       0.40000000       0.05000000       0.00000000 </v>
   <v>       0.45000000       0.05000000       0.00000000 </v>
   <v>       0.50000000       0.05000000       0.00000000 </v>
   <v>       0.10000000       0.10000000       0.00000000 </v>
   <v>       0.15000000       0.10000000       0.00000000 </v>
   <v>       0.20000000       0.10000000       0.00000000 </v>
   <v>       0.25000000       0.10000000       0.00000000 </v>
   <v>       0.30000000       0.10000000       0.00000000 </v>
   <v>       0.35000000       0.10000000       0.00000000 </v>
   <v>       0.40000000       0.10000000       0.00000000 </v>
   <v>       0.45000000       0.10000000       0.00000000 </v>
   <v>       0.50000000       0.10000000       0.00000000 </v>
   <v>       0.15000000       0.15000000       0.00000000 </v>
   <v>       0.20000000       0.15000000       0.00000000 </v>
   <v>       0.25000000       0.15000000       0.00000000 </v>
   <v>       0.30000000       0.15000000       0.00000000 </v>
   <v>       0.35000000       0.15000000       0.00000000 </v>
   <v>       0.40000000       0.15000000       0.00000000 </v>
   <v>       0.45000000       0.15000000       0.00000000 </v>
   <v>       0.50000000       0.15000000       0.00000000 </v>
   <v>       0.20000000       0.20000000       0.00000000 </v>
   <v>       0.25000000       0.20000000       0.00000000 </v>
   <v>       0.30000000       0.20000000       0.00000000 </v>
   <v>       0.35000000       0.20000000       0.00000000 </v>
   <v>       0.40000000       0.20000000       0.00000000 </v>
   <v>       0.45000000       0.20000000       0.00000000 </v>
   <v>       0.50000000       0.20000000       0.00000000 </v>
   <v>       0.25000000       0.25000000       0.00000000 </v>
   <v>       0.30000000       0.25000000       0.00000000 </v>
   <v>       0.35000000       0.25000000       0.00000000 </v>
   <v>       0.40000000       0.25000000       0.00000000 </v>
   <v>       0.45000000       0.25000000       0.00000000 </v>
   <v>       0.50000000       0.25000000       0.00000000 </v>
   <v>       0.30000000       0.30000000       0.00000000 </v>
   <v>       0.35000000       0.30000000       0.00000000 </v>
   <v>       0.40000000       0.30000000       0.00000000 </v>
   <v>       0.45000000       0.30000000       0.00000000 </v>
   <v>       0.50000000       0.30000000       0.00000000 </v>
   <v>       0.35000000       0.35000000       0.00000000 </v>
   <v>       0.40000000       0.35000000       0.00000000 </v>
   <v>       0.45000000       0.35000000       0.00000000 </v>
   <v>       0.50000000       0.35000000       0.00000000 </v>
   <v>       0.40000000       0.40000000       0.00000000 </v>
   <v>       0.45000000       0.40000000       0.00000000 </v>
   <v>       0.50000000       0.40000000       0.00000000 </v>
   <v>       0.45000000       0.45000000       0.00000000 </v>
   <v>       0.50000000       0.45000000       0.00000000 </v>
   <v>       0.50000000       0.50000000       0.00000000 </v>
   <v>       0.05000000       0.05000000       0.05000000 </v>
   <v>       0.10000000       0.05000000       0.05000000 </v>
   <v>       0.15000000       0.05000000       0.05000000 </v>
   <v>       0.20000000       0.05000000       0.05000000 </v>
   <v>       0.25000000       0.05000000       0.05000000 </v>
   <v>       0.30000000       0.05000000       0.05000000 </v>
   <v>       0.35000000       0.05000000       0.05000000 </v>
   <v>       0.40000000       0.05000000       0.05000000 </v>
   <v>       0.45000000       0.05000000       0.05000000 </v>
   <v>       0.50000000       0.05000000       0.05000000 </v>
   <v>       0.10000000       0.10000000       0.05000000 </v>
   <v>       0.15000000       0.10000000       0.05000000 </v>
   <v>       0.20000000       0.10000000       0.05000000 </v>
   <v>       0.25000000       0.10000000       0.05000000 </v>
   <v>       0.30000000       0.10000000       0.05000000 </v>
   <v>       0.35000000       0.10000000       0.05000000 </v>
   <v>       0.40000000       0.10000000       0.05000000 </v>
   <v>       0.45000000       0.10000000       0.05000000 </v>
   <v>       0.50000000       0.10000000       0.05000000 </v>
   <v>       0.15000000       0.15000000       0.05000000 </v>
   <v>       0.20000000       0.15000000       0.05000000 </v>
   <v>       0.25000000       0.15000000       0.05000000 </v>
   <v>       0.30000000       0.15000000       0.05000000 </v>
   <v>       0.35000000       0.15000000       0.05000000 </v>
   <v>       0.40000000       0.15000000       0.05000000 </v>
   <v>       0.45000000       0.15000000       0.05000000 </v>
   <v>       0.50000000       0.15000000       0.05000000 </v>
   <v>       0.20000000       0.20000000       0.05000000 </v>
   <v>       0.25000000       0.20000000       0.05000000 </v>
   <v>       0.30000000       0.20000000       0.05000000 </v>
   <v>       0.35000000       0.20000000       0.05000000 </v>
   <v>       0.40000000       0.20000000       0.05000000 </v>
   <v>       0.45000000       0.20000000       0.05000000 </v>
   <v>       0.50000000       0.20000000       0.05000000 </v>
   <v>       0.25000000       0.25000000       0.05000000 </v>
   <v>       0.30000000       0.25000000       0.05000000 </v>
   <v>       0.35000000       0.25000000       0.05000000 </v>
   <v>       0.40000000       0.25000000       0.05000000 </v>
   <v>       0.45000000       0.25000000       0.05000000 </v>
   <v>       0.50000000       0.25000000       0.05000000 </v>
   <v>       0.30000000       0.30000000       0.05000000 </v>
   <v>       0.35000000       0.30000000       0.05000000 </v>
   <v>       0.40000000       0.30000000       0.05000000 </v>
   <v>       0.45000000       0.30000000       0.05000000 </v>
   <v>       0.50000000       0.30000000       0.05000000 </v>
   <v>       0.35000000       0.35000000       0.05000000 </v>
   <v>       0.40000000       0.35000000       0.05000000 </v>
   <v>       0.45000000       0.35000000       0.05000000 </v>
   <v>       0.50000000       0.35000000       0.05000000 </v>
   <v>       0.40000000       0.40000000       0.05000000 </v>
   <v>       0.45000000       0.40000000       0.05000000 </v>
   <v>       0.50000000       0.40000000       0.05000000 </v>
   <v>       0.45000000       0.45000000       0.05000000 </v>
   <v>       0.50000000       0.45000000       0.05000000 </v>
   <v>       0.50000000       0.50000000       0.05000000 </v>
   <v>       0.10000000       0.10000000       0.10000000 </v>
   <v>       0.15000000       0.10000000       0.10000000 </v>
   <v>       0.20000000       0.10000000       0.10000000 </v>
   <v>       0.25000000       0.10000000       0.10000000 </v>
   <v>       0.30000000       0.10000000       0.10000000 </v>
   <v>       0.35000000       0.10000000       0.10000000 </v>
   <v>       0.40000000       0.10000000       0.10000000 </v>
   <v>       0.45000000       0.10000000       0.10000000 </v>
   <v>       0.50000000       0.10000000       0.10000000 </v>
   <v>       0.15000000       0.15000000       0.10000000 </v>
   <v>       0.20000000       0.15000000       0.10000000 </v>
   <v>       0.25000000       0.15000000       0.10000000 </v>
   <v>       0.30000000       0.15000000       0.10000000 </v>
   <v>       0.35000000       0.15000000       0.10000000 </v>
   <v>       0.40000000       0.15000000       0.10000000 </v>
   <v>       0.45000000       0.15000000       0.10000000 </v>
   <v>       0.50000000       0.15000000       0.10000000 </v>
   <v>       0.20000000       0.20000000       0.10000000 </v>
   <v>       0.25000000       0.20000000       0.10000000 </v>
   <v>       0.30000000       0.20000000       0.10000000 </v>
   <v>       0.35000000       0.20000000       0.10000000 </v>
   <v>       0.40000000       0.20000000       0.10000000 </v>
   <v>       0.45000000       0.20000000       0.10000000 </v>
   <v>       0.50000000       0.20000000       0.10000000 </v>
   <v>       0.25000000       0.25000000       0.10000000 </v>
   <v>       0.30000000       0.25000000       0.10000000 </v>
   <v>       0.35000000       0.25000000       0.10000000 </v>
   <v>       0.40000000       0.25000000       0.10000000 </v>
   <v>       0.45000000       0.25000000       0.10000000 </v>
   <v>       0.50000000       0.25000000       0.10000000 </v>
   <v>       0.30000000       0.30000000       0.10000000 </v>
   <v>       0.35000000       0.30000000       0.10000000 </v>
   <v>       0.40000000       0.30000000       0.10000000 </v>
   <v>       0.45000000       0.30000000       0.10000000 </v>
   <v>       0.50000000       0.30000000       0.10000000 </v>
   <v>       0.35000000       0.35000000       0.10000000 </v>
   <v>       0.40000000       0.35000000       0.10000000 </v>
   <v>       0.45000000       0.35000000       0.10000000 </v>
   <v>       0.50000000       0.35000000       0.10000000 </v>
   <v>       0.40000000       0.40000000       0.10000000 </v>
   <v>       0.45000000       0.40000000       0.10000000 </v>
   <v>       0.50000000       0.40000000       0.10000000 </v>
   <v>       0.45000000       0.45000000       0.10000000 </v>
   <v>       0.50000000       0.45000000       0.10000000 </v>
   <v>       0.50000000       0.50000000       0.10000000 </v>
   <v>       0.15000000       0.15000000       0.15000000 </v>
   <v>       0.20000000       0.15000000       0.15000000 </v>
   <v>       0.25000000       0.15000000       0.15000000 </v>
   <v>       0.30000000       0.15000000       0.15000000 </v>
   <v>       0.35000000       0.15000000       0.15000000 </v>
   <v>       0.40000000       0.15000000       0.15000000 </v>
   <v>       0.45000000       0.15000000       0.15000000 </v>
   <v>       0.50000000       0.15000000       0.15000000 </v>
   <v>       0.20000000       0.20000000       0.15000000 </v>
   <v>       0.25000000       0.20000000       0.15000000 </v>
   <v>       0.30000000       0.20000000       0.15000000 </v>
   <v>       0.35000000       0.20000000       0.15000000 </v>
   <v>       0.40000000       0.20000000       0.15000000 </v>
   <v>       0.45000000       0.20000000       0.15000000 </v>
   <v>       0.50000000       0.20000000       0.15000000 </v>
   <v>       0.25000000       0.25000000       0.15000000 </v>
   <v>       0.30000000       0.25000000       0.15000000 </v>
   <v>       0.35000000       0.25000000       0.15000000 </v>
   <v>       0.40000000       0.25000000       0.15000000 </v>
   <v>       0.45000000       0.25000000       0.15000000 </v>
   <v>       0.50000000       0.25000000       0.15000000 </v>
   <v>       0.30000000       0.30000000       0.15000000 </v>
   <v>       0.35000000       0.30000000       0.15000000 </v>
   <v>       0.40000000       0.30000000       0.15000000 </v>
   <v>       0.45000000       0.30000000       0.15000000 </v>
   <v>       0.50000000       0.30000000       0.15000000 </v>
   <v>       0.35000000       0.35000000       0.15000000 </v>
   <v>       0.40000000       0.35000000       0.15000000 </v>
   <v>       0.45000000       0.35000000       0.15000000 </v>
   <v>       0.50000000       0.35000000       0.15000000 </v>
   <v>       0.40000000       0.40000000       0.15000000 </v>
   <v>       0.45000000       0.40000000       0.15000000 </v>
   <v>       0.50000000       0.40000000       0.15000000 </v>
   <v>       0.45000000       0.45000000       0.15000000 </v>
   <v>       0.50000000       0.45000000       0.15000000 </v>
   <v>       0.50000000       0.50000000       0.15000000 </v>
   <v>       0.20000000       0.20000000       0.20000000 </v>
   <v>       0.25000000       0.20000000       0.20000000 </v>
   <v>       0.30000000       0.20000000       0.20000000 </v>
   <v>       0.35000000       0.20000000       0.20000000 </v>
   <v>       0.40000000       0.20000000       0.20000000 </v>
   <v>       0.45000000       0.20000000       0.20000000 </v>
   <v>       0.50000000       0.20000000       0.20000000 </v>
   <v>       0.25000000       0.25000000       0.20000000 </v>
   <v>       0.30000000       0.25000000       0.20000000 </v>
   <v>       0.35000000       0.25000000       0.20000000 </v>
   <v>       0.40000000       0.25000000       0.20000000 </v>
   <v>       0.45000000       0.25000000       0.20000000 </v>
   <v>       0.50000000       0.25000000       0.20000000 </v>
   <v>       0.30000000       0.30000000       0.20000000 </v>
   <v>       0.35000000       0.30000000       0.20000000 </v>
   <v>       0.40000000       0.30000000       0.20000000 </v>
   <v>       0.45000000       0.30000000       0.20000000 </v>
   <v>       0.50000000       0.30000000       0.20000000 </v>
   <v>       0.35000000       0.35000000       0.20000000 </v>
   <v>       0.40000000       0.35000000       0.20000000 </v>
   <v>       0.45000000       0.35000000       0.20000000 </v>
   <v>       0.50000000       0.35000000       0.20000000 </v>
   <v>       0.40000000       0.40000000       0.20000000 </v>
   <v>       0.45000000       0.40000000       0.20000000 </v>
   <v>       0.50000000       0.40000000       0.20000000 </v>
   <v>       0.45000000       0.45000000       0.20000000 </v>
   <v>       0.50000000       0.45000000       0.20000000 </v>
   <v>       0.50000000       0.50000000       0.20000000 </v>
   <v>       0.25000000       0.25000000       0.25000000 </v>
   <v>       0.30000000       0.25000000       0.25000000 </v>
   <v>       0.35000000       0.25000000       0.25000000 </v>
   <v>       0.40000000       0.25000000       0.25000000 </v>
   <v>       0.45000000       0.25000000       0.25000000 </v>
   <v>       0.50000000       0.25000000       0.25000000 </v>
   <v>       0.30000000       0.30000000       0.25000000 </v>
   <v>       0.35000000       0.30000000       0.25000000 </v>
   <v>       0.40000000       0.30000000       0.25000000 </v>
   <v>       0.45000000       0.30000000       0.25000000 </v>
   <v>       0.50000000       0.30000000       0.25000000 </v>
   <v>       0.35000000       0.35000000       0.25000000 </v>
   <v>       0.40000000       0.35000000       0.25000000 </v>
   <v>       0.45000000       0.35000000       0.25000000 </v>
   <v>       0.50000000       0.35000000       0.25000000 </v>
   <v>       0.40000000       0.40000000       0.25000000 </v>
   <v>       0.45000000       0.40000000       0.25000000 </v>
   <v>       0.50000000       0.40000000       0.25000000 </v>
   <v>       0.45000000       0.45000000       0.25000000 </v>
   <v>       0.50000000       0.45000000       0.25000000 </v>
   <v>       0.50000000       0.50000000       0.25000000 </v>
   <v>       0.30000000       0.30000000       0.30000000 </v>
   <v>       0.35000000       0.30000000       0.30000000 </v>
   <v>       0.40000000       0.30000000       0.30000000 </v>
   <v>       0.45000000       0.30000000       0.30000000 </v>
   <v>       0.50000000       0.30000000       0.30000000 </v>
   <v>       0.35000000       0.35000000       0.30000000 </v>
   <v>       0.40000000       0.35000000       0.30000000 </v>
   <v>       0.45000000       0.35000000       0.30000000 </v>
   <v>       0.50000000       0.35000000       0.30000000 </v>
   <v>       0.40000000       0.40000000       0.30000000 </v>
   <v>       0.45000000       0.40000000       0.30000000 </v>
   <v>       0.50000000       0.40000000       0.30000000 </v>
   <v>       0.45000000       0.45000000       0.30000000 </v>
   <v>       0.50000000       0.45000000       0.30000000 </v>
   <v>       0.50000000       0.50000000       0.30000000 </v>
   <v>       0.35000000       0.35000000       0.35000000 </v>
   <v>       0.40000000       0.35000000       0.35000000 </v>
   <v>       0.45000000       0.35000000       0.35000000 </v>
   <v>       0.50000000       0.35000000       0.35000000 </v>
   <v>       0.40000000       0.40000000       0.35000000 </v>
   <v>       0.45000000       0.40000000       0.35000000 </v>
   <v>       0.50000000       0.40000000       0.35000000 </v>
   <v>       0.45000000       0.45000000       0.35000000 </v>
   <v>       0.50000000       0.45000000       0.35000000 </v>
   <v>       0.50000000       0.50000000       0.35000000 </v>
   <v>       0.40000000       0.40000000       0.40000000 </v>
   <v>       0.45000000       0.40000000       0.40000000 </v>
   <v>       0.50000000       0.40000000       0.40000000 </v>
   <v>       0.45000000       0.45000000       0.40000000 </v>
   <v>       0.50000000       0.45000000       0.40000000 </v>
   <v>       0.50000000       0.50000000       0.40000000 </v>
   <v>       0.45000000       0.45000000       0.45000000 </v>
   <v>       0.50000000       0.45000000       0.45000000 </v>
   <v>       0.50000000       0.50000000       0.45000000 </v>
   <v>       0.50000000       0.50000000       0.50000000 </v>
  </varray>
  <varray name="weights" >
   <v>       0.00012500 </v>
   <v>       0.00075000 </v>
   <v>       0.00075000 </v>
   <v>       0.00075000 </v>
   <v>       0.00075000 </v>
   <v>       0.00075000 </v>
   <v>       0.00075000 </v>
   <v>       0.00075000 </v>
   <v>       0.00075000 </v>
   <v>       0.00075000 </v>
   <v>       0.00037500 </v>
   <v>       0.00150000 </v>
   <v>       0.00300000 </v>
   <v>       0.00300000 </v>
   <v>       0.00300000 </v>
   <v>       0.00300000 </v>
   <v>       0.00300000 </v>
   <v>       0.00300000 </v>
   <v>       0.00300000 </v>
   <v>       0.00300000 </v>
   <v>       0.00150000 </v>
   <v>       0.00150000 </v>
   <v>       0.00300000 </v>
   <v>       0.00300000 </v>
   <v>       0.00300000 </v>
   <v>       0.00300000 </v>
   <v>       0.00300000 </v>
   <v>       0.00300000 </v>
   <v>       0.00300000 </v>
   <v>       0.00150000 </v>
   <v>       0.00150000 </v>
   <v>       0.00300000 </v>
   <v>       0.00300000 </v>
   <v>       0.00300000 </v>
   <v>       0.00300000 </v>
   <v>       0.00300000 </v>
   <v>       0.00300000 </v>
   <v>       0.00150000 </v>
   <v>       0.00150000 </v>
   <v>       0.00300000 </v>
   <v>       0.00300000 </v>
   <v>       0.00300000 </v>
   <v>       0.00300000 </v>
   <v>       0.00300000 </v>
   <v>       0.00150000 </v>
   <v>       0.00150000 </v>
   <v>       0.00300000 </v>
   <v>       0.00300000 </v>
   <v>       0.00300000 </v>
   <v>       0.00300000 </v>
   <v>       0.00150000 </v>
   <v>       0.00150000 </v>
   <v>       0.00300000 </v>
   <v>       0.00300000 </v>
   <v>       0.00300000 </v>
   <v>       0.00150000 </v>
   <v>       0.00150000 </v>
   <v>       0.00300000 </v>
   <v>       0.00300000 </v>
   <v>       0.00150000 </v>
   <v>       0.00150000 </v>
   <v>       0.00300000 </v>
   <v>       0.00150000 </v>
   <v>       0.00150000 </v>
   <v>       0.00150000 </v>
   <v>       0.00037500 </v>
   <v>       0.00100000 </v>
   <v>       0.00300000 </v>
   <v>       0.00300000 </v>
   <v>       0.00300000 </v>
   <v>       0.00300000 </v>
   <v>       0.00300000 </v>
   <v>       0.00300000 </v>
   <v>       0.00300000 </v>
   <v>       0.00300000 </v>
   <v>       0.00150000 </v>
   <v>       0.00300000 </v>
   <v>       0.00600000 </v>
   <v>       0.00600000 </v>
   <v>       0.00600000 </v>
   <v>       0.00600000 </v>
   <v>       0.00600000 </v>
   <v>       0.00600000 </v>
   <v>       0.00600000 </v>
   <v>       0.00300000 </v>
   <v>       0.00300000 </v>
   <v>       0.00600000 </v>
   <v>       0.00600000 </v>
   <v>       0.00600000 </v>
   <v>       0.00600000 </v>
   <v>       0.00600000 </v>
   <v>       0.00600000 </v>
   <v>       0.00300000 </v>
   <v>       0.00300000 </v>
   <v>       0.00600000 </v>
   <v>       0.00600000 </v>
   <v>       0.00600000 </v>
   <v>       0.00600000 </v>
   <v>       0.00600000 </v>
   <v>       0.00300000 </v>
   <v>       0.00300000 </v>
   <v>       0.00600000 </v>
   <v>       0.00600000 </v>
   <v>       0.00600000 </v>
   <v>       0.00600000 </v>
   <v>       0.00300000 </v>
   <v>       0.00300000 </v>
   <v>       0.00600000 </v>
   <v>       0.00600000 </v>
   <v>       0.00600000 </v>
   <v>       0.00300000 </v>
   <v>       0.00300000 </v>
   <v>       0.00600000 </v>
   <v>       0.00600000 </v>
   <v>       0.00300000 </v>
   <v>       0.00300000 </v>
   <v>       0.00600000 </v>
   <v>       0.00300000 </v>
   <v>       0.00300000 </v>
   <v>       0.00300000 </v>
   <v>       0.00075000 </v>
   <v>       0.00100000 </v>
   <v>       0.00300000 </v>
   <v>       0.00300000 </v>
   <v>       0.00300000 </v>
   <v>       0.00300000 </v>
   <v>       0.00300000 </v>
   <v>       0.00300000 </v>
   <v>       0.00300000 </v>
   <v>       0.00150000 </v>
   <v>       0.00300000 </v>
   <v>       0.00600000 </v>
   <v>       0.00600000 </v>
   <v>       0.00600000 </v>
   <v>       0.00600000 </v>
   <v>       0.00600000 </v>
   <v>       0.00600000 </v>
   <v>       0.00300000 </v>
   <v>       0.00300000 </v>
   <v>       0.00600000 </v>
   <v>       0.00600000 </v>
   <v>       0.00600000 </v>
   <v>       0.00600000 </v>
   <v>       0.00600000 </v>
   <v>       0.00300000 </v>
   <v>       0.00300000 </v>
   <v>       0.00600000 </v>
   <v>       0.00600000 </v>
   <v>       0.00600000 </v>
   <v>       0.00600000 </v>
   <v>       0.00300000 </v>
   <v>       0.00300000 </v>
   <v>       0.00600000 </v>
   <v>       0.00600000 </v>
   <v>       0.00600000 </v>
   <v>       0.00300000 </v>
   <v>       0.00300000 </v>
   <v>       0.00600000 </v>
   <v>       0.00600000 </v>
   <v>       0.00300000 </v>
   <v>       0.00300000 </v>
   <v>       0.00600000 </v>
   <v>       0.00300000 </v>
   <v>       0.00300000 </v>
   <v>       0.00300000 </v>
   <v>       0.00075000 </v>
   <v>       0.00100000 </v>
   <v>       0.00300000 </v>
   <v>       0.00300000 </v>
   <v>       0.00300000 </v>
   <v>       0.00300000 </v>
   <v>       0.00300000 </v>
   <v>       0.00300000 </v>
   <v>       0.00150000 </v>
   <v>       0.00300000 </v>
   <v>       0.00600000 </v>
   <v>       0.00600000 </v>
   <v>       0.00600000 </v>
   <v>       0.00600000 </v>
   <v>       0.00600000 </v>
   <v>       0.00300000 </v>
   <v>       0.00300000 </v>
   <v>       0.00600000 </v>
   <v>       0.00600000 </v>
   <v>       0.00600000 </v>
   <v>       0.00600000 </v>
   <v>       0.00300000 </v>
   <v>       0.00300000 </v>
   <v>       0.00600000 </v>
   <v>       0.00600000 </v>
   <v>       0.00600000 </v>
   <v>       0.00300000 </v>
   <v>       0.00300000 </v>
   <v>       0.00600000 </v>
   <v>       0.00600000 </v>
   <v>       0.00300000 </v>
   <v>       0.00300000 </v>
   <v>       0.00600000 </v>
   <v>       0.00300000 </v>
   <v>       0.00300000 </v>
   <v>       0.00300000 </v>
   <v>       0.00075000 </v>
   <v>       0.00100000 </v>
   <v>       0.00300000 </v>
   <v>       0.00300000 </v>
   <v>       0.00300000 </v>
   <v>       0.00300000 </v>
   <v>       0.00300000 </v>
   <v>       0.00150000 </v>
   <v>       0.00300000 </v>
   <v>       0.00600000 </v>
   <v>       0.00600000 </v>
   <v>       0.00600000 </v>
   <v>       0.00600000 </v>
   <v>       0.00300000 </v>
   <v>       0.00300000 </v>
   <v>       0.00600000 </v>
   <v>       0.00600000 </v>
   <v>       0.00600000 </v>
   <v>       0.00300000 </v>
   <v>       0.00300000 </v>
   <v>       0.00600000 </v>
   <v>       0.00600000 </v>
   <v>       0.00300000 </v>
   <v>       0.00300000 </v>
   <v>       0.00600000 </v>
   <v>       0.00300000 </v>
   <v>       0.00300000 </v>
   <v>       0.00300000 </v>
   <v>       0.00075000 </v>
   <v>       0.00100000 </v>
   <v>       0.00300000 </v>
   <v>       0.00300000 </v>
   <v>       0.00300000 </v>
   <v>       0.00300000 </v>
   <v>       0.00150000 </v>
   <v>       0.00300000 </v>
   <v>       0.00600000 </v>
   <v>       0.00600000 </v>
   <v>       0.00600000 </v>
   <v>       0.00300000 </v>
   <v>       0.00300000 </v>
   <v>       0.00600000 </v>
   <v>       0.00600000 </v>
   <v>       0.00300000 </v>
   <v>       0.00300000 </v>
   <v>       0.00600000 </v>
   <v>       0.00300000 </v>
   <v>       0.00300000 </v>
   <v>       0.00300000 </v>
   <v>       0.00075000 </v>
   <v>       0.00100000 </v>
   <v>       0.00300000 </v>
   <v>       0.00300000 </v>
   <v>       0.00300000 </v>
   <v>       0.00150000 </v>
   <v>       0.00300000 </v>
   <v>       0.00600000 </v>
   <v>       0.00600000 </v>
   <v>       0.00300000 </v>
   <v>       0.00300000 </v>
   <v>       0.00600000 </v>
   <v>       0.00300000 </v>
   <v>       0.00300000 </v>
   <v>       0.00300000 </v>
   <v>       0.00075000 </v>
   <v>       0.00100000 </v>
   <v>       0.00300000 </v>
   <v>       0.00300000 </v>
   <v>       0.00150000 </v>
   <v>       0.00300000 </v>
   <v>       0.00600000 </v>
   <v>       0.00300000 </v>
   <v>       0.00300000 </v>
   <v>       0.00300000 </v>
   <v>       0.00075000 </v>
   <v>       0.00100000 </v>
   <v>       0.00300000 </v>
   <v>       0.00150000 </v>
   <v>       0.00300000 </v>
   <v>       0.00300000 </v>
   <v>       0.00075000 </v>
   <v>       0.00100000 </v>
   <v>       0.00150000 </v>
   <v>       0.00075000 </v>
   <v>       0.00012500 </v>
  </varray>
  <varray name="tetrahedronlist"  type="int" >
   <v type="int" >       12        1        2        2       12 </v>
   <v type="int" >       12        2        2       12       12 </v>
   <v type="int" >       12        2       12       12       67 </v>
   <v type="int" >       12        2        3       12       13 </v>
   <v type="int" >       12        2       12       12       13 </v>
   <v type="int" >       12       12       12       13       67 </v>
   <v type="int" >       12        3       12       13       13 </v>
   <v type="int" >       24       12       13       13       68 </v>
   <v type="int" >       24       12       13       67       68 </v>
   <v type="int" >       12        3        4       13       14 </v>
   <v type="int" >       12        3       13       13       14 </v>
   <v type="int" >       12       13       13       14       68 </v>
   <v type="int" >       12        4       13       14       14 </v>
   <v type="int" >       12       13       14       14       69 </v>
   <v type="int" >       12       13       14       68       69 </v>
   <v type="int" >       12        4        5       14       15 </v>
   <v type="int" >       12        4       14       14       15 </v>
   <v type="int" >       12       14       14       15       69 </v>
   <v type="int" >       12        5       14       15       15 </v>
   <v type="int" >       12       14       15       15       70 </v>
   <v type="int" >       12       14       15       69       70 </v>
   <v type="int" >       12        5        6       15       16 </v>
   <v type="int" >       12        5       15       15       16 </v>
   <v type="int" >       12       15       15       16       70 </v>
   <v type="int" >       12        6       15       16       16 </v>
   <v type="int" >       12       15       16       16       71 </v>
   <v type="int" >       12       15       16       70       71 </v>
   <v type="int" >       12        6        7       16       17 </v>
   <v type="int" >       12        6       16       16       17 </v>
   <v type="int" >       12       16       16       17       71 </v>
   <v type="int" >       12        7       16       17       17 </v>
   <v type="int" >       12       16       17       17       72 </v>
   <v type="int" >       12       16       17       71       72 </v>
   <v type="int" >       12        7        8       17       18 </v>
   <v type="int" >       12        7       17       17       18 </v>
   <v type="int" >       12       17       17       18       72 </v>
   <v type="int" >       12        8       17       18       18 </v>
   <v type="int" >       12       17       18       18       73 </v>
   <v type="int" >       12       17       18       72       73 </v>
   <v type="int" >       12        8        9       18       19 </v>
   <v type="int" >       12        8       18       18       19 </v>
   <v type="int" >       12       18       18       19       73 </v>
   <v type="int" >       12        9       18       19       19 </v>
   <v type="int" >       12       18       19       19       74 </v>
   <v type="int" >       12       18       19       73       74 </v>
   <v type="int" >       12        9       10       19       20 </v>
   <v type="int" >       12        9       19       19       20 </v>
   <v type="int" >       12       19       19       20       74 </v>
   <v type="int" >       12       10       19       20       20 </v>
   <v type="int" >       12       19       20       20       75 </v>
   <v type="int" >       12       19       20       74       75 </v>
   <v type="int" >       12       10       11       20       21 </v>
   <v type="int" >       12       10       20       20       21 </v>
   <v type="int" >       12       20       20       21       75 </v>
   <v type="int" >       12       11       20       21       21 </v>
   <v type="int" >       12       20       21       21       76 </v>
   <v type="int" >       12       20       21       75       76 </v>
   <v type="int" >       12       12       13       22       67 </v>
   <v type="int" >       12       13       22       67       68 </v>
   <v type="int" >       12       22       67       68       77 </v>
   <v type="int" >       12       13       14       23       68 </v>
   <v type="int" >       12       13       22       23       68 </v>
   <v type="int" >       12       22       23       68       77 </v>
   <v type="int" >       12       14       23       68       69 </v>
   <v type="int" >       12       23       68       69       78 </v>
   <v type="int" >       12       23       68       77       78 </v>
   <v type="int" >       12       14       15       24       69 </v>
   <v type="int" >       12       14       23       24       69 </v>
   <v type="int" >       12       23       24       69       78 </v>
   <v type="int" >       12       15       24       69       70 </v>
   <v type="int" >       12       24       69       70       79 </v>
   <v type="int" >       12       24       69       78       79 </v>
   <v type="int" >       12       15       16       25       70 </v>
   <v type="int" >       12       15       24       25       70 </v>
   <v type="int" >       12       24       25       70       79 </v>
   <v type="int" >       12       16       25       70       71 </v>
   <v type="int" >       12       25       70       71       80 </v>
   <v type="int" >       12       25       70       79       80 </v>
   <v type="int" >       12       16       17       26       71 </v>
   <v type="int" >       12       16       25       26       71 </v>
   <v type="int" >       12       25       26       71       80 </v>
   <v type="int" >       12       17       26       71       72 </v>
   <v type="int" >       12       26       71       72       81 </v>
   <v type="int" >       12       26       71       80       81 </v>
   <v type="int" >       12       17       18       27       72 </v>
   <v type="int" >       12       17       26       27       72 </v>
   <v type="int" >       12       26       27       72       81 </v>
   <v type="int" >       12       18       27       72       73 </v>
   <v type="int" >       12       27       72       73       82 </v>
   <v type="int" >       12       27       72       81       82 </v>
   <v type="int" >       12       18       19       28       73 </v>
   <v type="int" >       12       18       27       28       73 </v>
   <v type="int" >       12       27       28       73       82 </v>
   <v type="int" >       12       19       28       73       74 </v>
   <v type="int" >       12       28       73       74       83 </v>
   <v type="int" >       12       28       73       82       83 </v>
   <v type="int" >       12       19       20       29       74 </v>
   <v type="int" >       12       19       28       29       74 </v>
   <v type="int" >       12       28       29       74       83 </v>
   <v type="int" >       12       20       29       74       75 </v>
   <v type="int" >       12       29       74       75       84 </v>
   <v type="int" >       12       29       74       83       84 </v>
   <v type="int" >       12       20       21       30       75 </v>
   <v type="int" >       12       20       29       30       75 </v>
   <v type="int" >       12       29       30       75       84 </v>
   <v type="int" >       12       21       30       75       76 </v>
   <v type="int" >       12       30       75       76       85 </v>
   <v type="int" >       12       30       75       84       85 </v>
   <v type="int" >       12       20       21       29       76 </v>
   <v type="int" >       12       21       29       30       76 </v>
   <v type="int" >       12       29       30       76       85 </v>
   <v type="int" >       12       20       29       75       76 </v>
   <v type="int" >       12       29       75       76       84 </v>
   <v type="int" >       12       29       76       84       85 </v>
   <v type="int" >       12       19       20       28       75 </v>
   <v type="int" >       12       20       28       29       75 </v>
   <v type="int" >       12       28       29       75       84 </v>
   <v type="int" >       12       19       28       74       75 </v>
   <v type="int" >       12       28       74       75       83 </v>
   <v type="int" >       12       28       75       83       84 </v>
   <v type="int" >       12       18       19       27       74 </v>
   <v type="int" >       12       19       27       28       74 </v>
   <v type="int" >       12       27       28       74       83 </v>
   <v type="int" >       12       18       27       73       74 </v>
   <v type="int" >       12       27       73       74       82 </v>
   <v type="int" >       12       27       74       82       83 </v>
   <v type="int" >       12       17       18       26       73 </v>
   <v type="int" >       12       18       26       27       73 </v>
   <v type="int" >       12       26       27       73       82 </v>
   <v type="int" >       12       17       26       72       73 </v>
   <v type="int" >       12       26       72       73       81 </v>
   <v type="int" >       12       26       73       81       82 </v>
   <v type="int" >       12       16       17       25       72 </v>
   <v type="int" >       12       17       25       26       72 </v>
   <v type="int" >       12       25       26       72       81 </v>
   <v type="int" >       12       16       25       71       72 </v>
   <v type="int" >       12       25       71       72       80 </v>
   <v type="int" >       12       25       72       80       81 </v>
   <v type="int" >       12       15       16       24       71 </v>
   <v type="int" >       12       16       24       25       71 </v>
   <v type="int" >       12       24       25       71       80 </v>
   <v type="int" >       12       15       24       70       71 </v>
   <v type="int" >       12       24       70       71       79 </v>
   <v type="int" >       12       24       71       79       80 </v>
   <v type="int" >       12       14       15       23       70 </v>
   <v type="int" >       12       15       23       24       70 </v>
   <v type="int" >       12       23       24       70       79 </v>
   <v type="int" >       12       14       23       69       70 </v>
   <v type="int" >       12       23       69       70       78 </v>
   <v type="int" >       12       23       70       78       79 </v>
   <v type="int" >       12       13       14       22       69 </v>
   <v type="int" >       12       14       22       23       69 </v>
   <v type="int" >       12       22       23       69       78 </v>
   <v type="int" >       12       13       22       68       69 </v>
   <v type="int" >       12       22       68       69       77 </v>
   <v type="int" >       12       22       69       77       78 </v>
   <v type="int" >       12       13       13       22       68 </v>
   <v type="int" >       12       13       22       68       77 </v>
   <v type="int" >       12       13       67       68       68 </v>
   <v type="int" >       12       13       68       68       77 </v>
   <v type="int" >       12        2        3       12       67 </v>
   <v type="int" >       12        3       12       13       67 </v>
   <v type="int" >       12        3       13       67       68 </v>
   <v type="int" >       12       22       23       31       77 </v>
   <v type="int" >       12       23       31       77       78 </v>
   <v type="int" >       12       31       77       78       86 </v>
   <v type="int" >       12       23       24       32       78 </v>
   <v type="int" >       12       23       31       32       78 </v>
   <v type="int" >       12       31       32       78       86 </v>
   <v type="int" >       12       24       32       78       79 </v>
   <v type="int" >       12       32       78       79       87 </v>
   <v type="int" >       12       32       78       86       87 </v>
   <v type="int" >       12       24       25       33       79 </v>
   <v type="int" >       12       24       32       33       79 </v>
   <v type="int" >       12       32       33       79       87 </v>
   <v type="int" >       12       25       33       79       80 </v>
   <v type="int" >       12       33       79       80       88 </v>
   <v type="int" >       12       33       79       87       88 </v>
   <v type="int" >       12       25       26       34       80 </v>
   <v type="int" >       12       25       33       34       80 </v>
   <v type="int" >       12       33       34       80       88 </v>
   <v type="int" >       12       26       34       80       81 </v>
   <v type="int" >       12       34       80       81       89 </v>
   <v type="int" >       12       34       80       88       89 </v>
   <v type="int" >       12       26       27       35       81 </v>
   <v type="int" >       12       26       34       35       81 </v>
   <v type="int" >       12       34       35       81       89 </v>
   <v type="int" >       12       27       35       81       82 </v>
   <v type="int" >       12       35       81       82       90 </v>
   <v type="int" >       12       35       81       89       90 </v>
   <v type="int" >       12       27       28       36       82 </v>
   <v type="int" >       12       27       35       36       82 </v>
   <v type="int" >       12       35       36       82       90 </v>
   <v type="int" >       12       28       36       82       83 </v>
   <v type="int" >       12       36       82       83       91 </v>
   <v type="int" >       12       36       82       90       91 </v>
   <v type="int" >       12       28       29       37       83 </v>
   <v type="int" >       12       28       36       37       83 </v>
   <v type="int" >       12       36       37       83       91 </v>
   <v type="int" >       12       29       37       83       84 </v>
   <v type="int" >       12       37       83       84       92 </v>
   <v type="int" >       12       37       83       91       92 </v>
   <v type="int" >       12       29       30       38       84 </v>
   <v type="int" >       12       29       37       38       84 </v>
   <v type="int" >       12       37       38       84       92 </v>
   <v type="int" >       12       30       38       84       85 </v>
   <v type="int" >       12       38       84       85       93 </v>
   <v type="int" >       12       38       84       92       93 </v>
   <v type="int" >       12       29       30       37       85 </v>
   <v type="int" >       12       30       37       38       85 </v>
   <v type="int" >       12       37       38       85       93 </v>
   <v type="int" >       12       29       37       84       85 </v>
   <v type="int" >       12       37       84       85       92 </v>
   <v type="int" >       12       37       85       92       93 </v>
   <v type="int" >       12       28       29       36       84 </v>
   <v type="int" >       12       29       36       37       84 </v>
   <v type="int" >       12       36       37       84       92 </v>
   <v type="int" >       12       28       36       83       84 </v>
   <v type="int" >       12       36       83       84       91 </v>
   <v type="int" >       12       36       84       91       92 </v>
   <v type="int" >       12       27       28       35       83 </v>
   <v type="int" >       12       28       35       36       83 </v>
   <v type="int" >       12       35       36       83       91 </v>
   <v type="int" >       12       27       35       82       83 </v>
   <v type="int" >       12       35       82       83       90 </v>
   <v type="int" >       12       35       83       90       91 </v>
   <v type="int" >       12       26       27       34       82 </v>
   <v type="int" >       12       27       34       35       82 </v>
   <v type="int" >       12       34       35       82       90 </v>
   <v type="int" >       12       26       34       81       82 </v>
   <v type="int" >       12       34       81       82       89 </v>
   <v type="int" >       12       34       82       89       90 </v>
   <v type="int" >       12       25       26       33       81 </v>
   <v type="int" >       12       26       33       34       81 </v>
   <v type="int" >       12       33       34       81       89 </v>
   <v type="int" >       12       25       33       80       81 </v>
   <v type="int" >       12       33       80       81       88 </v>
   <v type="int" >       12       33       81       88       89 </v>
   <v type="int" >       12       24       25       32       80 </v>
   <v type="int" >       12       25       32       33       80 </v>
   <v type="int" >       12       32       33       80       88 </v>
   <v type="int" >       12       24       32       79       80 </v>
   <v type="int" >       12       32       79       80       87 </v>
   <v type="int" >       12       32       80       87       88 </v>
   <v type="int" >       12       23       24       31       79 </v>
   <v type="int" >       12       24       31       32       79 </v>
   <v type="int" >       12       31       32       79       87 </v>
   <v type="int" >       12       23       31       78       79 </v>
   <v type="int" >       12       31       78       79       86 </v>
   <v type="int" >       12       31       79       86       87 </v>
   <v type="int" >       12       22       23       23       78 </v>
   <v type="int" >       12       23       23       31       78 </v>
   <v type="int" >       12       23       31       78       86 </v>
   <v type="int" >       12       22       23       77       78 </v>
   <v type="int" >       12       23       77       78       78 </v>
   <v type="int" >       12       23       78       78       86 </v>
   <v type="int" >       12       13       14       22       77 </v>
   <v type="int" >       12       14       22       23       77 </v>
   <v type="int" >       12       14       23       77       78 </v>
   <v type="int" >       12       13       14       68       77 </v>
   <v type="int" >       12       14       68       69       77 </v>
   <v type="int" >       12       14       69       77       78 </v>
   <v type="int" >       12        3        4       13       68 </v>
   <v type="int" >       12        4       13       14       68 </v>
   <v type="int" >       12        4       14       68       69 </v>
   <v type="int" >       12       31       32       39       86 </v>
   <v type="int" >       12       32       39       86       87 </v>
   <v type="int" >       12       39       86       87       94 </v>
   <v type="int" >       12       32       33       40       87 </v>
   <v type="int" >       12       32       39       40       87 </v>
   <v type="int" >       12       39       40       87       94 </v>
   <v type="int" >       12       33       40       87       88 </v>
   <v type="int" >       12       40       87       88       95 </v>
   <v type="int" >       12       40       87       94       95 </v>
   <v type="int" >       12       33       34       41       88 </v>
   <v type="int" >       12       33       40       41       88 </v>
   <v type="int" >       12       40       41       88       95 </v>
   <v type="int" >       12       34       41       88       89 </v>
   <v type="int" >       12       41       88       89       96 </v>
   <v type="int" >       12       41       88       95       96 </v>
   <v type="int" >       12       34       35       42       89 </v>
   <v type="int" >       12       34       41       42       89 </v>
   <v type="int" >       12       41       42       89       96 </v>
   <v type="int" >       12       35       42       89       90 </v>
   <v type="int" >       12       42       89       90       97 </v>
   <v type="int" >       12       42       89       96       97 </v>
   <v type="int" >       12       35       36       43       90 </v>
   <v type="int" >       12       35       42       43       90 </v>
   <v type="int" >       12       42       43       90       97 </v>
   <v type="int" >       12       36       43       90       91 </v>
   <v type="int" >       12       43       90       91       98 </v>
   <v type="int" >       12       43       90       97       98 </v>
   <v type="int" >       12       36       37       44       91 </v>
   <v type="int" >       12       36       43       44       91 </v>
   <v type="int" >       12       43       44       91       98 </v>
   <v type="int" >       12       37       44       91       92 </v>
   <v type="int" >       12       44       91       92       99 </v>
   <v type="int" >       12       44       91       98       99 </v>
   <v type="int" >       12       37       38       45       92 </v>
   <v type="int" >       12       37       44       45       92 </v>
   <v type="int" >       12       44       45       92       99 </v>
   <v type="int" >       12       38       45       92       93 </v>
   <v type="int" >       12       45       92       93      100 </v>
   <v type="int" >       12       45       92       99      100 </v>
   <v type="int" >       12       37       38       44       93 </v>
   <v type="int" >       12       38       44       45       93 </v>
   <v type="int" >       12       44       45       93      100 </v>
   <v type="int" >       12       37       44       92       93 </v>
   <v type="int" >       12       44       92       93       99 </v>
   <v type="int" >       12       44       93       99      100 </v>
   <v type="int" >       12       36       37       43       92 </v>
   <v type="int" >       12       37       43       44       92 </v>
   <v type="int" >       12       43       44       92       99 </v>
   <v type="int" >       12       36       43       91       92 </v>
   <v type="int" >       12       43       91       92       98 </v>
   <v type="int" >       12       43       92       98       99 </v>
   <v type="int" >       12       35       36       42       91 </v>
   <v type="int" >       12       36       42       43       91 </v>
   <v type="int" >       12       42       43       91       98 </v>
   <v type="int" >       12       35       42       90       91 </v>
   <v type="int" >       12       42       90       91       97 </v>
   <v type="int" >       12       42       91       97       98 </v>
   <v type="int" >       12       34       35       41       90 </v>
   <v type="int" >       12       35       41       42       90 </v>
   <v type="int" >       12       41       42       90       97 </v>
   <v type="int" >       12       34       41       89       90 </v>
   <v type="int" >       12       41       89       90       96 </v>
   <v type="int" >       12       41       90       96       97 </v>
   <v type="int" >       12       33       34       40       89 </v>
   <v type="int" >       12       34       40       41       89 </v>
   <v type="int" >       12       40       41       89       96 </v>
   <v type="int" >       12       33       40       88       89 </v>
   <v type="int" >       12       40       88       89       95 </v>
   <v type="int" >       12       40       89       95       96 </v>
   <v type="int" >       12       32       33       39       88 </v>
   <v type="int" >       12       33       39       40       88 </v>
   <v type="int" >       12       39       40       88       95 </v>
   <v type="int" >       12       32       39       87       88 </v>
   <v type="int" >       12       39       87       88       94 </v>
   <v type="int" >       12       39       88       94       95 </v>
   <v type="int" >       12       31       32       32       87 </v>
   <v type="int" >       12       32       32       39       87 </v>
   <v type="int" >       12       32       39       87       94 </v>
   <v type="int" >       12       31       32       86       87 </v>
   <v type="int" >       12       32       86       87       87 </v>
   <v type="int" >       12       32       87       87       94 </v>
   <v type="int" >       12       23       24       31       86 </v>
   <v type="int" >       12       24       31       32       86 </v>
   <v type="int" >       12       24       32       86       87 </v>
   <v type="int" >       12       23       24       78       86 </v>
   <v type="int" >       12       24       78       79       86 </v>
   <v type="int" >       12       24       79       86       87 </v>
   <v type="int" >       12       14       15       23       78 </v>
   <v type="int" >       12       15       23       24       78 </v>
   <v type="int" >       12       15       24       78       79 </v>
   <v type="int" >       12       14       15       69       78 </v>
   <v type="int" >       12       15       69       70       78 </v>
   <v type="int" >       12       15       70       78       79 </v>
   <v type="int" >       12        4        5       14       69 </v>
   <v type="int" >       12        5       14       15       69 </v>
   <v type="int" >       12        5       15       69       70 </v>
   <v type="int" >       12       39       40       46       94 </v>
   <v type="int" >       12       40       46       94       95 </v>
   <v type="int" >       12       46       94       95      101 </v>
   <v type="int" >       12       40       41       47       95 </v>
   <v type="int" >       12       40       46       47       95 </v>
   <v type="int" >       12       46       47       95      101 </v>
   <v type="int" >       12       41       47       95       96 </v>
   <v type="int" >       12       47       95       96      102 </v>
   <v type="int" >       12       47       95      101      102 </v>
   <v type="int" >       12       41       42       48       96 </v>
   <v type="int" >       12       41       47       48       96 </v>
   <v type="int" >       12       47       48       96      102 </v>
   <v type="int" >       12       42       48       96       97 </v>
   <v type="int" >       12       48       96       97      103 </v>
   <v type="int" >       12       48       96      102      103 </v>
   <v type="int" >       12       42       43       49       97 </v>
   <v type="int" >       12       42       48       49       97 </v>
   <v type="int" >       12       48       49       97      103 </v>
   <v type="int" >       12       43       49       97       98 </v>
   <v type="int" >       12       49       97       98      104 </v>
   <v type="int" >       12       49       97      103      104 </v>
   <v type="int" >       12       43       44       50       98 </v>
   <v type="int" >       12       43       49       50       98 </v>
   <v type="int" >       12       49       50       98      104 </v>
   <v type="int" >       12       44       50       98       99 </v>
   <v type="int" >       12       50       98       99      105 </v>
   <v type="int" >       12       50       98      104      105 </v>
   <v type="int" >       12       44       45       51       99 </v>
   <v type="int" >       12       44       50       51       99 </v>
   <v type="int" >       12       50       51       99      105 </v>
   <v type="int" >       12       45       51       99      100 </v>
   <v type="int" >       12       51       99      100      106 </v>
   <v type="int" >       12       51       99      105      106 </v>
   <v type="int" >       12       44       45       50      100 </v>
   <v type="int" >       12       45       50       51      100 </v>
   <v type="int" >       12       50       51      100      106 </v>
   <v type="int" >       12       44       50       99      100 </v>
   <v type="int" >       12       50       99      100      105 </v>
   <v type="int" >       12       50      100      105      106 </v>
   <v type="int" >       12       43       44       49       99 </v>
   <v type="int" >       12       44       49       50       99 </v>
   <v type="int" >       12       49       50       99      105 </v>
   <v type="int" >       12       43       49       98       99 </v>
   <v type="int" >       12       49       98       99      104 </v>
   <v type="int" >       12       49       99      104      105 </v>
   <v type="int" >       12       42       43       48       98 </v>
   <v type="int" >       12       43       48       49       98 </v>
   <v type="int" >       12       48       49       98      104 </v>
   <v type="int" >       12       42       48       97       98 </v>
   <v type="int" >       12       48       97       98      103 </v>
   <v type="int" >       12       48       98      103      104 </v>
   <v type="int" >       12       41       42       47       97 </v>
   <v type="int" >       12       42       47       48       97 </v>
   <v type="int" >       12       47       48       97      103 </v>
   <v type="int" >       12       41       47       96       97 </v>
   <v type="int" >       12       47       96       97      102 </v>
   <v type="int" >       12       47       97      102      103 </v>
   <v type="int" >       12       40       41       46       96 </v>
   <v type="int" >       12       41       46       47       96 </v>
   <v type="int" >       12       46       47       96      102 </v>
   <v type="int" >       12       40       46       95       96 </v>
   <v type="int" >       12       46       95       96      101 </v>
   <v type="int" >       12       46       96      101      102 </v>
   <v type="int" >       12       39       40       40       95 </v>
   <v type="int" >       12       40       40       46       95 </v>
   <v type="int" >       12       40       46       95      101 </v>
   <v type="int" >       12       39       40       94       95 </v>
   <v type="int" >       12       40       94       95       95 </v>
   <v type="int" >       12       40       95       95      101 </v>
   <v type="int" >       12       32       33       39       94 </v>
   <v type="int" >       12       33       39       40       94 </v>
   <v type="int" >       12       33       40       94       95 </v>
   <v type="int" >       12       32       33       87       94 </v>
   <v type="int" >       12       33       87       88       94 </v>
   <v type="int" >       12       33       88       94       95 </v>
   <v type="int" >       12       24       25       32       87 </v>
   <v type="int" >       12       25       32       33       87 </v>
   <v type="int" >       12       25       33       87       88 </v>
   <v type="int" >       12       24       25       79       87 </v>
   <v type="int" >       12       25       79       80       87 </v>
   <v type="int" >       12       25       80       87       88 </v>
   <v type="int" >       12       15       16       24       79 </v>
   <v type="int" >       12       16       24       25       79 </v>
   <v type="int" >       12       16       25       79       80 </v>
   <v type="int" >       12       15       16       70       79 </v>
   <v type="int" >       12       16       70       71       79 </v>
   <v type="int" >       12       16       71       79       80 </v>
   <v type="int" >       12        5        6       15       70 </v>
   <v type="int" >       12        6       15       16       70 </v>
   <v type="int" >       12        6       16       70       71 </v>
   <v type="int" >       12       46       47       52      101 </v>
   <v type="int" >       12       47       52      101      102 </v>
   <v type="int" >       12       52      101      102      107 </v>
   <v type="int" >       12       47       48       53      102 </v>
   <v type="int" >       12       47       52       53      102 </v>
   <v type="int" >       12       52       53      102      107 </v>
   <v type="int" >       12       48       53      102      103 </v>
   <v type="int" >       12       53      102      103      108 </v>
   <v type="int" >       12       53      102      107      108 </v>
   <v type="int" >       12       48       49       54      103 </v>
   <v type="int" >       12       48       53       54      103 </v>
   <v type="int" >       12       53       54      103      108 </v>
   <v type="int" >       12       49       54      103      104 </v>
   <v type="int" >       12       54      103      104      109 </v>
   <v type="int" >       12       54      103      108      109 </v>
   <v type="int" >       12       49       50       55      104 </v>
   <v type="int" >       12       49       54       55      104 </v>
   <v type="int" >       12       54       55      104      109 </v>
   <v type="int" >       12       50       55      104      105 </v>
   <v type="int" >       12       55      104      105      110 </v>
   <v type="int" >       12       55      104      109      110 </v>
   <v type="int" >       12       50       51       56      105 </v>
   <v type="int" >       12       50       55       56      105 </v>
   <v type="int" >       12       55       56      105      110 </v>
   <v type="int" >       12       51       56      105      106 </v>
   <v type="int" >       12       56      105      106      111 </v>
   <v type="int" >       12       56      105      110      111 </v>
   <v type="int" >       12       50       51       55      106 </v>
   <v type="int" >       12       51       55       56      106 </v>
   <v type="int" >       12       55       56      106      111 </v>
   <v type="int" >       12       50       55      105      106 </v>
   <v type="int" >       12       55      105      106      110 </v>
   <v type="int" >       12       55      106      110      111 </v>
   <v type="int" >       12       49       50       54      105 </v>
   <v type="int" >       12       50       54       55      105 </v>
   <v type="int" >       12       54       55      105      110 </v>
   <v type="int" >       12       49       54      104      105 </v>
   <v type="int" >       12       54      104      105      109 </v>
   <v type="int" >       12       54      105      109      110 </v>
   <v type="int" >       12       48       49       53      104 </v>
   <v type="int" >       12       49       53       54      104 </v>
   <v type="int" >       12       53       54      104      109 </v>
   <v type="int" >       12       48       53      103      104 </v>
   <v type="int" >       12       53      103      104      108 </v>
   <v type="int" >       12       53      104      108      109 </v>
   <v type="int" >       12       47       48       52      103 </v>
   <v type="int" >       12       48       52       53      103 </v>
   <v type="int" >       12       52       53      103      108 </v>
   <v type="int" >       12       47       52      102      103 </v>
   <v type="int" >       12       52      102      103      107 </v>
   <v type="int" >       12       52      103      107      108 </v>
   <v type="int" >       12       46       47       47      102 </v>
   <v type="int" >       12       47       47       52      102 </v>
   <v type="int" >       12       47       52      102      107 </v>
   <v type="int" >       12       46       47      101      102 </v>
   <v type="int" >       12       47      101      102      102 </v>
   <v type="int" >       12       47      102      102      107 </v>
   <v type="int" >       12       40       41       46      101 </v>
   <v type="int" >       12       41       46       47      101 </v>
   <v type="int" >       12       41       47      101      102 </v>
   <v type="int" >       12       40       41       95      101 </v>
   <v type="int" >       12       41       95       96      101 </v>
   <v type="int" >       12       41       96      101      102 </v>
   <v type="int" >       12       33       34       40       95 </v>
   <v type="int" >       12       34       40       41       95 </v>
   <v type="int" >       12       34       41       95       96 </v>
   <v type="int" >       12       33       34       88       95 </v>
   <v type="int" >       12       34       88       89       95 </v>
   <v type="int" >       12       34       89       95       96 </v>
   <v type="int" >       12       25       26       33       88 </v>
   <v type="int" >       12       26       33       34       88 </v>
   <v type="int" >       12       26       34       88       89 </v>
   <v type="int" >       12       25       26       80       88 </v>
   <v type="int" >       12       26       80       81       88 </v>
   <v type="int" >       12       26       81       88       89 </v>
   <v type="int" >       12       16       17       25       80 </v>
   <v type="int" >       12       17       25       26       80 </v>
   <v type="int" >       12       17       26       80       81 </v>
   <v type="int" >       12       16       17       71       80 </v>
   <v type="int" >       12       17       71       72       80 </v>
   <v type="int" >       12       17       72       80       81 </v>
   <v type="int" >       12        6        7       16       71 </v>
   <v type="int" >       12        7       16       17       71 </v>
   <v type="int" >       12        7       17       71       72 </v>
   <v type="int" >       12       52       53       57      107 </v>
   <v type="int" >       12       53       57      107      108 </v>
   <v type="int" >       12       57      107      108      112 </v>
   <v type="int" >       12       53       54       58      108 </v>
   <v type="int" >       12       53       57       58      108 </v>
   <v type="int" >       12       57       58      108      112 </v>
   <v type="int" >       12       54       58      108      109 </v>
   <v type="int" >       12       58      108      109      113 </v>
   <v type="int" >       12       58      108      112      113 </v>
   <v type="int" >       12       54       55       59      109 </v>
   <v type="int" >       12       54       58       59      109 </v>
   <v type="int" >       12       58       59      109      113 </v>
   <v type="int" >       12       55       59      109      110 </v>
   <v type="int" >       12       59      109      110      114 </v>
   <v type="int" >       12       59      109      113      114 </v>
   <v type="int" >       12       55       56       60      110 </v>
   <v type="int" >       12       55       59       60      110 </v>
   <v type="int" >       12       59       60      110      114 </v>
   <v type="int" >       12       56       60      110      111 </v>
   <v type="int" >       12       60      110      111      115 </v>
   <v type="int" >       12       60      110      114      115 </v>
   <v type="int" >       12       55       56       59      111 </v>
   <v type="int" >       12       56       59       60      111 </v>
   <v type="int" >       12       59       60      111      115 </v>
   <v type="int" >       12       55       59      110      111 </v>
   <v type="int" >       12       59      110      111      114 </v>
   <v type="int" >       12       59      111      114      115 </v>
   <v type="int" >       12       54       55       58      110 </v>
   <v type="int" >       12       55       58       59      110 </v>
   <v type="int" >       12       58       59      110      114 </v>
   <v type="int" >       12       54       58      109      110 </v>
   <v type="int" >       12       58      109      110      113 </v>
   <v type="int" >       12       58      110      113      114 </v>
   <v type="int" >       12       53       54       57      109 </v>
   <v type="int" >       12       54       57       58      109 </v>
   <v type="int" >       12       57       58      109      113 </v>
   <v type="int" >       12       53       57      108      109 </v>
   <v type="int" >       12       57      108      109      112 </v>
   <v type="int" >       12       57      109      112      113 </v>
   <v type="int" >       12       52       53       53      108 </v>
   <v type="int" >       12       53       53       57      108 </v>
   <v type="int" >       12       53       57      108      112 </v>
   <v type="int" >       12       52       53      107      108 </v>
   <v type="int" >       12       53      107      108      108 </v>
   <v type="int" >       12       53      108      108      112 </v>
   <v type="int" >       12       47       48       52      107 </v>
   <v type="int" >       12       48       52       53      107 </v>
   <v type="int" >       12       48       53      107      108 </v>
   <v type="int" >       12       47       48      102      107 </v>
   <v type="int" >       12       48      102      103      107 </v>
   <v type="int" >       12       48      103      107      108 </v>
   <v type="int" >       12       41       42       47      102 </v>
   <v type="int" >       12       42       47       48      102 </v>
   <v type="int" >       12       42       48      102      103 </v>
   <v type="int" >       12       41       42       96      102 </v>
   <v type="int" >       12       42       96       97      102 </v>
   <v type="int" >       12       42       97      102      103 </v>
   <v type="int" >       12       34       35       41       96 </v>
   <v type="int" >       12       35       41       42       96 </v>
   <v type="int" >       12       35       42       96       97 </v>
   <v type="int" >       12       34       35       89       96 </v>
   <v type="int" >       12       35       89       90       96 </v>
   <v type="int" >       12       35       90       96       97 </v>
   <v type="int" >       12       26       27       34       89 </v>
   <v type="int" >       12       27       34       35       89 </v>
   <v type="int" >       12       27       35       89       90 </v>
   <v type="int" >       12       26       27       81       89 </v>
   <v type="int" >       12       27       81       82       89 </v>
   <v type="int" >       12       27       82       89       90 </v>
   <v type="int" >       12       17       18       26       81 </v>
   <v type="int" >       12       18       26       27       81 </v>
   <v type="int" >       12       18       27       81       82 </v>
   <v type="int" >       12       17       18       72       81 </v>
   <v type="int" >       12       18       72       73       81 </v>
   <v type="int" >       12       18       73       81       82 </v>
   <v type="int" >       12        7        8       17       72 </v>
   <v type="int" >       12        8       17       18       72 </v>
   <v type="int" >       12        8       18       72       73 </v>
   <v type="int" >       12       57       58       61      112 </v>
   <v type="int" >       12       58       61      112      113 </v>
   <v type="int" >       12       61      112      113      116 </v>
   <v type="int" >       12       58       59       62      113 </v>
   <v type="int" >       12       58       61       62      113 </v>
   <v type="int" >       12       61       62      113      116 </v>
   <v type="int" >       12       59       62      113      114 </v>
   <v type="int" >       12       62      113      114      117 </v>
   <v type="int" >       12       62      113      116      117 </v>
   <v type="int" >       12       59       60       63      114 </v>
   <v type="int" >       12       59       62       63      114 </v>
   <v type="int" >       12       62       63      114      117 </v>
   <v type="int" >       12       60       63      114      115 </v>
   <v type="int" >       12       63      114      115      118 </v>
   <v type="int" >       12       63      114      117      118 </v>
   <v type="int" >       12       59       60       62      115 </v>
   <v type="int" >       12       60       62       63      115 </v>
   <v type="int" >       12       62       63      115      118 </v>
   <v type="int" >       12       59       62      114      115 </v>
   <v type="int" >       12       62      114      115      117 </v>
   <v type="int" >       12       62      115      117      118 </v>
   <v type="int" >       12       58       59       61      114 </v>
   <v type="int" >       12       59       61       62      114 </v>
   <v type="int" >       12       61       62      114      117 </v>
   <v type="int" >       12       58       61      113      114 </v>
   <v type="int" >       12       61      113      114      116 </v>
   <v type="int" >       12       61      114      116      117 </v>
   <v type="int" >       12       57       58       58      113 </v>
   <v type="int" >       12       58       58       61      113 </v>
   <v type="int" >       12       58       61      113      116 </v>
   <v type="int" >       12       57       58      112      113 </v>
   <v type="int" >       12       58      112      113      113 </v>
   <v type="int" >       12       58      113      113      116 </v>
   <v type="int" >       12       53       54       57      112 </v>
   <v type="int" >       12       54       57       58      112 </v>
   <v type="int" >       12       54       58      112      113 </v>
   <v type="int" >       12       53       54      108      112 </v>
   <v type="int" >       12       54      108      109      112 </v>
   <v type="int" >       12       54      109      112      113 </v>
   <v type="int" >       12       48       49       53      108 </v>
   <v type="int" >       12       49       53       54      108 </v>
   <v type="int" >       12       49       54      108      109 </v>
   <v type="int" >       12       48       49      103      108 </v>
   <v type="int" >       12       49      103      104      108 </v>
   <v type="int" >       12       49      104      108      109 </v>
   <v type="int" >       12       42       43       48      103 </v>
   <v type="int" >       12       43       48       49      103 </v>
   <v type="int" >       12       43       49      103      104 </v>
   <v type="int" >       12       42       43       97      103 </v>
   <v type="int" >       12       43       97       98      103 </v>
   <v type="int" >       12       43       98      103      104 </v>
   <v type="int" >       12       35       36       42       97 </v>
   <v type="int" >       12       36       42       43       97 </v>
   <v type="int" >       12       36       43       97       98 </v>
   <v type="int" >       12       35       36       90       97 </v>
   <v type="int" >       12       36       90       91       97 </v>
   <v type="int" >       12       36       91       97       98 </v>
   <v type="int" >       12       27       28       35       90 </v>
   <v type="int" >       12       28       35       36       90 </v>
   <v type="int" >       12       28       36       90       91 </v>
   <v type="int" >       12       27       28       82       90 </v>
   <v type="int" >       12       28       82       83       90 </v>
   <v type="int" >       12       28       83       90       91 </v>
   <v type="int" >       12       18       19       27       82 </v>
   <v type="int" >       12       19       27       28       82 </v>
   <v type="int" >       12       19       28       82       83 </v>
   <v type="int" >       12       18       19       73       82 </v>
   <v type="int" >       12       19       73       74       82 </v>
   <v type="int" >       12       19       74       82       83 </v>
   <v type="int" >       12        8        9       18       73 </v>
   <v type="int" >       12        9       18       19       73 </v>
   <v type="int" >       12        9       19       73       74 </v>
   <v type="int" >       12       61       62       64      116 </v>
   <v type="int" >       12       62       64      116      117 </v>
   <v type="int" >       12       64      116      117      119 </v>
   <v type="int" >       12       62       63       65      117 </v>
   <v type="int" >       12       62       64       65      117 </v>
   <v type="int" >       12       64       65      117      119 </v>
   <v type="int" >       12       63       65      117      118 </v>
   <v type="int" >       12       65      117      118      120 </v>
   <v type="int" >       12       65      117      119      120 </v>
   <v type="int" >       12       62       63       64      118 </v>
   <v type="int" >       12       63       64       65      118 </v>
   <v type="int" >       12       64       65      118      120 </v>
   <v type="int" >       12       62       64      117      118 </v>
   <v type="int" >       12       64      117      118      119 </v>
   <v type="int" >       12       64      118      119      120 </v>
   <v type="int" >       12       61       62       62      117 </v>
   <v type="int" >       12       62       62       64      117 </v>
   <v type="int" >       12       62       64      117      119 </v>
   <v type="int" >       12       61       62      116      117 </v>
   <v type="int" >       12       62      116      117      117 </v>
   <v type="int" >       12       62      117      117      119 </v>
   <v type="int" >       12       58       59       61      116 </v>
   <v type="int" >       12       59       61       62      116 </v>
   <v type="int" >       12       59       62      116      117 </v>
   <v type="int" >       12       58       59      113      116 </v>
   <v type="int" >       12       59      113      114      116 </v>
   <v type="int" >       12       59      114      116      117 </v>
   <v type="int" >       12       54       55       58      113 </v>
   <v type="int" >       12       55       58       59      113 </v>
   <v type="int" >       12       55       59      113      114 </v>
   <v type="int" >       12       54       55      109      113 </v>
   <v type="int" >       12       55      109      110      113 </v>
   <v type="int" >       12       55      110      113      114 </v>
   <v type="int" >       12       49       50       54      109 </v>
   <v type="int" >       12       50       54       55      109 </v>
   <v type="int" >       12       50       55      109      110 </v>
   <v type="int" >       12       49       50      104      109 </v>
   <v type="int" >       12       50      104      105      109 </v>
   <v type="int" >       12       50      105      109      110 </v>
   <v type="int" >       12       43       44       49      104 </v>
   <v type="int" >       12       44       49       50      104 </v>
   <v type="int" >       12       44       50      104      105 </v>
   <v type="int" >       12       43       44       98      104 </v>
   <v type="int" >       12       44       98       99      104 </v>
   <v type="int" >       12       44       99      104      105 </v>
   <v type="int" >       12       36       37       43       98 </v>
   <v type="int" >       12       37       43       44       98 </v>
   <v type="int" >       12       37       44       98       99 </v>
   <v type="int" >       12       36       37       91       98 </v>
   <v type="int" >       12       37       91       92       98 </v>
   <v type="int" >       12       37       92       98       99 </v>
   <v type="int" >       12       28       29       36       91 </v>
   <v type="int" >       12       29       36       37       91 </v>
   <v type="int" >       12       29       37       91       92 </v>
   <v type="int" >       12       28       29       83       91 </v>
   <v type="int" >       12       29       83       84       91 </v>
   <v type="int" >       12       29       84       91       92 </v>
   <v type="int" >       12       19       20       28       83 </v>
   <v type="int" >       12       20       28       29       83 </v>
   <v type="int" >       12       20       29       83       84 </v>
   <v type="int" >       12       19       20       74       83 </v>
   <v type="int" >       12       20       74       75       83 </v>
   <v type="int" >       12       20       75       83       84 </v>
[...]
        <r>  0.6178  0.0210  0.0208  0.0092  0.0000  0.0000 </r>
       </set>
       <set comment="band 2">
        <r>  0.0646  0.0020  0.0011  0.2111  0.0000  0.0000 </r>
       </set>
       <set comment="band 3">
        <r>  0.0629  0.3180  0.0003  0.0487  0.0000  0.0000 </r>
       </set>
       <set comment="band 4">
        <r>  0.0244  0.0611  0.0004  0.1338  0.0000  0.0000 </r>
       </set>
      </set>
      <set comment="kpoint 248">
       <set comment="band 1">
        <r>  0.6652  0.0215  0.0222  0.0000  0.0000  0.0000 </r>
       </set>
       <set comment="band 2">
        <r>  0.0000  0.0000  0.0000  0.2387  0.0000  0.0000 </r>
       </set>
       <set comment="band 3">
        <r>  0.1012  0.3820  0.0003  0.0000  0.0000  0.0000 </r>
       </set>
       <set comment="band 4">
        <r>  0.0000  0.0000  0.0000  0.1645  0.0000  0.0000 </r>
       </set>
      </set>
      <set comment="kpoint 249">
       <set comment="band 1">
        <r>  0.6819  0.0096  0.0224  0.0096  0.0000  0.0000 </r>
       </set>
       <set comment="band 2">
        <r>  0.0661  0.1080  0.0010  0.1080  0.0000  0.0000 </r>
       </set>
       <set comment="band 3">
        <r>  0.0000  0.1974  0.0000  0.1974  0.0000  0.0000 </r>
       </set>
       <set comment="band 4">
        <r>  0.0144  0.0836  0.0000  0.0836  0.0000  0.0000 </r>
       </set>
      </set>
      <set comment="kpoint 250">
       <set comment="band 1">
        <r>  0.7230  0.0101  0.0237  0.0000  0.0000  0.0000 </r>
       </set>
       <set comment="band 2">
        <r>  0.0000  0.0000  0.0000  0.2811  0.0000  0.0000 </r>
       </set>
       <set comment="band 3">
        <r>  0.0372  0.3901  0.0003  0.0000  0.0000  0.0000 </r>
       </set>
       <set comment="band 4">
        <r>  0.0000  0.0000  0.0000  0.1191  0.0000  0.0000 </r>
       </set>
      </set>
      <set comment="kpoint 251">
       <set comment="band 1">
        <r>  0.7588  0.0000  0.0241  0.0000  0.0000  0.0000 </r>
       </set>
       <set comment="band 2">
        <r>  0.0000  0.2060  0.0000  0.1879  0.0000  0.0000 </r>
       </set>
       <set comment="band 3">
        <r>  0.0000  0.1879  0.0000  0.2060  0.0000  0.0000 </r>
       </set>
       <set comment="band 4">
        <r>  0.0000  0.0000  0.0000  0.0000  0.0000  0.0000 </r>
       </set>
      </set>
      <set comment="kpoint 252">
       <set comment="band 1">
        <r>  0.4433  0.0181  0.0181  0.0181  0.0000  0.0000 </r>
       </set>
       <set comment="band 2">
        <r>  0.3396  0.0260  0.0260  0.0260  0.0000  0.0000 </r>
       </set>
       <set comment="band 3">
        <r>  0.0000  0.0694  0.2765  0.0688  0.0000  0.0000 </r>
       </set>
       <set comment="band 4">
        <r>  0.0000  0.2070  0.0000  0.2077  0.0000  0.0000 </r>
       </set>
      </set>
      <set comment="kpoint 253">
       <set comment="band 1">
        <r>  0.4626  0.0187  0.0187  0.0220  0.0000  0.0000 </r>
       </set>
       <set comment="band 2">
        <r>  0.2505  0.0012  0.0012  0.1278  0.0000  0.0000 </r>
       </set>
       <set comment="band 3">
        <r>  0.0775  0.1010  0.1010  0.1515  0.0000  0.0000 </r>
       </set>
       <set comment="band 4">
        <r>  0.0000  0.2179  0.2179  0.0000  0.0000  0.0000 </r>
       </set>
      </set>
      <set comment="kpoint 254">
       <set comment="band 1">
        <r>  0.4998  0.0207  0.0207  0.0200  0.0000  0.0000 </r>
       </set>
       <set comment="band 2">
        <r>  0.1456  0.0007  0.0007  0.1840  0.0000  0.0000 </r>
       </set>
       <set comment="band 3">
        <r>  0.1611  0.1123  0.1123  0.0805  0.0000  0.0000 </r>
       </set>
       <set comment="band 4">
        <r>  0.0000  0.2373  0.2373  0.0000  0.0000  0.0000 </r>
       </set>
      </set>
      <set comment="kpoint 255">
       <set comment="band 1">
        <r>  0.5642  0.0227  0.0227  0.0110  0.0000  0.0000 </r>
       </set>
       <set comment="band 2">
        <r>  0.0567  0.0009  0.0009  0.2040  0.0000  0.0000 </r>
       </set>
       <set comment="band 3">
        <r>  0.2154  0.1286  0.1286  0.0331  0.0000  0.0000 </r>
       </set>
       <set comment="band 4">
        <r>  0.0000  0.2820  0.2820  0.0000  0.0000  0.0000 </r>
       </set>
      </set>
      <set comment="kpoint 256">
       <set comment="band 1">
        <r>  0.6143  0.0247  0.0247  0.0000  0.0000  0.0000 </r>
       </set>
       <set comment="band 2">
        <r>  0.0000  0.0000  0.0000  0.2204  0.0000  0.0000 </r>
       </set>
       <set comment="band 3">
        <r>  0.2464  0.1419  0.1419  0.0000  0.0000  0.0000 </r>
       </set>
       <set comment="band 4">
        <r>  0.0000  0.3768  0.3768  0.0000  0.0000  0.0000 </r>
       </set>
      </set>
      <set comment="kpoint 257">
       <set comment="band 1">
        <r>  0.4842  0.0226  0.0193  0.0226  0.0000  0.0000 </r>
       </set>
       <set comment="band 2">
        <r>  0.2793  0.0502  0.0003  0.0502  0.0000  0.0000 </r>
       </set>
       <set comment="band 3">
        <r>  0.0000  0.2039  0.0000  0.2039  0.0000  0.0000 </r>
       </set>
       <set comment="band 4">
        <r>  0.0348  0.0401  0.3395  0.0401  0.0000  0.0000 </r>
       </set>
      </set>
      <set comment="kpoint 258">
       <set comment="band 1">
        <r>  0.5243  0.0238  0.0211  0.0211  0.0000  0.0000 </r>
       </set>
       <set comment="band 2">
        <r>  0.1679  0.0013  0.0005  0.1655  0.0000  0.0000 </r>
       </set>
       <set comment="band 3">
        <r>  0.0749  0.2581  0.0040  0.0935  0.0000  0.0000 </r>
       </set>
       <set comment="band 4">
        <r>  0.0486  0.0573  0.3660  0.0123  0.0000  0.0000 </r>
       </set>
      </set>
      <set comment="kpoint 259">
       <set comment="band 1">
        <r>  0.5905  0.0265  0.0233  0.0107  0.0000  0.0000 </r>
       </set>
       <set comment="band 2">
        <r>  0.0592  0.0002  0.0007  0.2108  0.0000  0.0000 </r>
       </set>
       <set comment="band 3">
        <r>  0.1430  0.2890  0.0088  0.0354  0.0000  0.0000 </r>
       </set>
       <set comment="band 4">
        <r>  0.0581  0.0548  0.3775  0.0023  0.0000  0.0000 </r>
       </set>
      </set>
      <set comment="kpoint 260">
       <set comment="band 1">
        <r>  0.6397  0.0263  0.0262  0.0000  0.0000  0.0000 </r>
       </set>
       <set comment="band 2">
        <r>  0.0000  0.0000  0.0000  0.2278  0.0000  0.0000 </r>
       </set>
       <set comment="band 3">
        <r>  0.1811  0.3240  0.0128  0.0000  0.0000  0.0000 </r>
       </set>
       <set comment="band 4">
        <r>  0.0000  0.0000  0.0000  0.2060  0.0000  0.0000 </r>
       </set>
      </set>
      <set comment="kpoint 261">
       <set comment="band 1">
        <r>  0.5678  0.0216  0.0230  0.0216  0.0000  0.0000 </r>
       </set>
       <set comment="band 2">
        <r>  0.1869  0.0702  0.0007  0.0702  0.0000  0.0000 </r>
       </set>
       <set comment="band 3">
        <r>  0.0000  0.2046  0.0000  0.2046  0.0000  0.0000 </r>
       </set>
       <set comment="band 4">
        <r>  0.0912  0.0005  0.3217  0.0005  0.0000  0.0000 </r>
       </set>
      </set>
      <set comment="kpoint 262">
       <set comment="band 1">
        <r>  0.6356  0.0223  0.0244  0.0105  0.0000  0.0000 </r>
       </set>
       <set comment="band 2">
        <r>  0.0662  0.0024  0.0005  0.2092  0.0000  0.0000 </r>
       </set>
       <set comment="band 3">
        <r>  0.0660  0.3115  0.0001  0.0530  0.0000  0.0000 </r>
       </set>
       <set comment="band 4">
        <r>  0.0332  0.0451  0.0115  0.1239  0.0000  0.0000 </r>
       </set>
      </set>
      <set comment="kpoint 263">
       <set comment="band 1">
        <r>  0.6819  0.0235  0.0269  0.0000  0.0000  0.0000 </r>
       </set>
       <set comment="band 2">
        <r>  0.0000  0.0000  0.0000  0.2461  0.0000  0.0000 </r>
       </set>
       <set comment="band 3">
        <r>  0.1078  0.3709  0.0004  0.0000  0.0000  0.0000 </r>
       </set>
       <set comment="band 4">
        <r>  0.0000  0.0000  0.0000  0.1719  0.0000  0.0000 </r>
       </set>
      </set>
      <set comment="kpoint 264">
       <set comment="band 1">
        <r>  0.6997  0.0093  0.0289  0.0093  0.0000  0.0000 </r>
       </set>
       <set comment="band 2">
        <r>  0.0658  0.1117  0.0006  0.1117  0.0000  0.0000 </r>
       </set>
       <set comment="band 3">
        <r>  0.0000  0.2039  0.0000  0.2039  0.0000  0.0000 </r>
       </set>
       <set comment="band 4">
        <r>  0.0159  0.0839  0.0004  0.0839  0.0000  0.0000 </r>
       </set>
      </set>
      <set comment="kpoint 265">
       <set comment="band 1">
        <r>  0.7395  0.0098  0.0303  0.0000  0.0000  0.0000 </r>
       </set>
       <set comment="band 2">
        <r>  0.0000  0.0000  0.0000  0.2905  0.0000  0.0000 </r>
       </set>
       <set comment="band 3">
        <r>  0.0376  0.4012  0.0001  0.0000  0.0000  0.0000 </r>
       </set>
       <set comment="band 4">
        <r>  0.0000  0.0000  0.0000  0.1233  0.0000  0.0000 </r>
       </set>
      </set>
      <set comment="kpoint 266">
       <set comment="band 1">
        <r>  0.7743  0.0000  0.0306  0.0000  0.0000  0.0000 </r>
       </set>
       <set comment="band 2">
        <r>  0.0000  0.1888  0.0000  0.2181  0.0000  0.0000 </r>
       </set>
       <set comment="band 3">
        <r>  0.0000  0.2181  0.0000  0.1888  0.0000  0.0000 </r>
       </set>
       <set comment="band 4">
        <r>  0.0000  0.0000  0.0000  0.0000  0.0000  0.0000 </r>
       </set>
      </set>
      <set comment="kpoint 267">
       <set comment="band 1">
        <r>  0.5080  0.0231  0.0231  0.0231  0.0000  0.0000 </r>
       </set>
       <set comment="band 2">
        <r>  0.2953  0.0281  0.0281  0.0281  0.0000  0.0000 </r>
       </set>
       <set comment="band 3">
        <r>  0.0000  0.0719  0.2858  0.0711  0.0000  0.0000 </r>
       </set>
       <set comment="band 4">
        <r>  0.0000  0.2140  0.0000  0.2148  0.0000  0.0000 </r>
       </set>
      </set>
      <set comment="kpoint 268">
       <set comment="band 1">
        <r>  0.5510  0.0240  0.0240  0.0222  0.0000  0.0000 </r>
       </set>
       <set comment="band 2">
        <r>  0.1895  0.0019  0.0019  0.1453  0.0000  0.0000 </r>
       </set>
       <set comment="band 3">
        <r>  0.0770  0.1095  0.1095  0.1421  0.0000  0.0000 </r>
       </set>
       <set comment="band 4">
        <r>  0.0000  0.2332  0.2331  0.0000  0.0000  0.0000 </r>
       </set>
      </set>
      <set comment="kpoint 269">
       <set comment="band 1">
        <r>  0.6188  0.0268  0.0268  0.0105  0.0000  0.0000 </r>
       </set>
       <set comment="band 2">
        <r>  0.0620  0.0001  0.0001  0.2172  0.0000  0.0000 </r>
       </set>
       <set comment="band 3">
        <r>  0.1640  0.1297  0.1297  0.0466  0.0000  0.0000 </r>
       </set>
       <set comment="band 4">
        <r>  0.0000  0.2776  0.2776  0.0000  0.0000  0.0000 </r>
       </set>
      </set>
      <set comment="kpoint 270">
       <set comment="band 1">
        <r>  0.6667  0.0274  0.0274  0.0000  0.0000  0.0000 </r>
       </set>
       <set comment="band 2">
        <r>  0.0000  0.0000  0.0000  0.2354  0.0000  0.0000 </r>
       </set>
       <set comment="band 3">
        <r>  0.2030  0.1457  0.1457  0.0000  0.0000  0.0000 </r>
       </set>
       <set comment="band 4">
        <r>  0.0000  0.3631  0.3631  0.0000  0.0000  0.0000 </r>
       </set>
      </set>
      <set comment="kpoint 271">
       <set comment="band 1">
        <r>  0.5972  0.0224  0.0247  0.0224  0.0000  0.0000 </r>
       </set>
       <set comment="band 2">
        <r>  0.1970  0.0657  0.0013  0.0657  0.0000  0.0000 </r>
       </set>
       <set comment="band 3">
        <r>  0.0000  0.2118  0.0000  0.2118  0.0000  0.0000 </r>
       </set>
       <set comment="band 4">
        <r>  0.0370  0.0351  0.3784  0.0351  0.0000  0.0000 </r>
       </set>
      </set>
      <set comment="kpoint 272">
       <set comment="band 1">
        <r>  0.6657  0.0220  0.0276  0.0101  0.0000  0.0000 </r>
       </set>
       <set comment="band 2">
        <r>  0.0691  0.0035  0.0000  0.2142  0.0000  0.0000 </r>
       </set>
       <set comment="band 3">
        <r>  0.0730  0.3020  0.0069  0.0633  0.0000  0.0000 </r>
       </set>
       <set comment="band 4">
        <r>  0.0548  0.0403  0.3996  0.0001  0.0000  0.0000 </r>
       </set>
      </set>
      <set comment="kpoint 273">
       <set comment="band 1">
        <r>  0.7101  0.0231  0.0299  0.0000  0.0000  0.0000 </r>
       </set>
       <set comment="band 2">
        <r>  0.0000  0.0000  0.0000  0.2580  0.0000  0.0000 </r>
       </set>
       <set comment="band 3">
        <r>  0.1218  0.3461  0.0127  0.0000  0.0000  0.0000 </r>
       </set>
       <set comment="band 4">
        <r>  0.0000  0.0000  0.0000  0.1909  0.0000  0.0000 </r>
       </set>
      </set>
      <set comment="kpoint 274">
       <set comment="band 1">
        <r>  0.7294  0.0100  0.0295  0.0100  0.0000  0.0000 </r>
       </set>
       <set comment="band 2">
        <r>  0.0662  0.1136  0.0000  0.1136  0.0000  0.0000 </r>
       </set>
       <set comment="band 3">
        <r>  0.0000  0.2135  0.0000  0.2135  0.0000  0.0000 </r>
       </set>
       <set comment="band 4">
        <r>  0.0227  0.0733  0.0128  0.0733  0.0000  0.0000 </r>
       </set>
      </set>
      <set comment="kpoint 275">
       <set comment="band 1">
        <r>  0.7678  0.0094  0.0296  0.0000  0.0000  0.0000 </r>
       </set>
       <set comment="band 2">
        <r>  0.0000  0.0000  0.0000  0.2994  0.0000  0.0000 </r>
       </set>
       <set comment="band 3">
        <r>  0.0391  0.4027  0.0006  0.0000  0.0000  0.0000 </r>
       </set>
       <set comment="band 4">
        <r>  0.0000  0.0000  0.0000  0.1297  0.0000  0.0000 </r>
       </set>
      </set>
      <set comment="kpoint 276">
       <set comment="band 1">
        <r>  0.8002  0.0000  0.0328  0.0000  0.0000  0.0000 </r>
       </set>
       <set comment="band 2">
        <r>  0.0000  0.4209  0.0000  0.0065  0.0000  0.0000 </r>
       </set>
       <set comment="band 3">
        <r>  0.0000  0.0065  0.0000  0.4209  0.0000  0.0000 </r>
       </set>
       <set comment="band 4">
        <r>  0.0000  0.0000  0.0000  0.0000  0.0000  0.0000 </r>
       </set>
      </set>
      <set comment="kpoint 277">
       <set comment="band 1">
        <r>  0.6458  0.0224  0.0224  0.0224  0.0000  0.0000 </r>
       </set>
       <set comment="band 2">
        <r>  0.1926  0.0436  0.0436  0.0436  0.0000  0.0000 </r>
       </set>
       <set comment="band 3">
        <r>  0.0000  0.0767  0.3072  0.0769  0.0000  0.0000 </r>
       </set>
       <set comment="band 4">
        <r>  0.0000  0.2306  0.0000  0.2303  0.0000  0.0000 </r>
       </set>
      </set>
      <set comment="kpoint 278">
       <set comment="band 1">
        <r>  0.7133  0.0225  0.0225  0.0114  0.0000  0.0000 </r>
       </set>
       <set comment="band 2">
        <r>  0.0754  0.0057  0.0057  0.2080  0.0000  0.0000 </r>
       </set>
       <set comment="band 3">
        <r>  0.0719  0.1400  0.1400  0.1016  0.0000  0.0000 </r>
       </set>
       <set comment="band 4">
        <r>  0.0000  0.2739  0.2739  0.0000  0.0000  0.0000 </r>
       </set>
      </set>
      <set comment="kpoint 279">
       <set comment="band 1">
        <r>  0.7545  0.0236  0.0236  0.0000  0.0000  0.0000 </r>
       </set>
       <set comment="band 2">
        <r>  0.0000  0.0000  0.0000  0.2758  0.0000  0.0000 </r>
       </set>
       <set comment="band 3">
        <r>  0.1282  0.1686  0.1686  0.0000  0.0000  0.0000 </r>
       </set>
       <set comment="band 4">
        <r>  0.0000  0.3591  0.3591  0.0000  0.0000  0.0000 </r>
       </set>
      </set>
      <set comment="kpoint 280">
       <set comment="band 1">
        <r>  0.7749  0.0101  0.0228  0.0101  0.0000  0.0000 </r>
       </set>
       <set comment="band 2">
        <r>  0.0667  0.1164  0.0067  0.1164  0.0000  0.0000 </r>
       </set>
       <set comment="band 3">
        <r>  0.0000  0.2287  0.0000  0.2287  0.0000  0.0000 </r>
       </set>
       <set comment="band 4">
        <r>  0.0389  0.0150  0.4749  0.0150  0.0000  0.0000 </r>
       </set>
      </set>
      <set comment="kpoint 281">
       <set comment="band 1">
        <r>  0.8100  0.0095  0.0222  0.0000  0.0000  0.0000 </r>
       </set>
       <set comment="band 2">
        <r>  0.0000  0.0000  0.0000  0.3214  0.0000  0.0000 </r>
       </set>
       <set comment="band 3">
        <r>  0.0429  0.4083  0.0137  0.0000  0.0000  0.0000 </r>
       </set>
       <set comment="band 4">
        <r>  0.0000  0.0000  0.0000  0.1438  0.0000  0.0000 </r>
       </set>
      </set>
      <set comment="kpoint 282">
       <set comment="band 1">
        <r>  0.8412  0.0000  0.0166  0.0000  0.0000  0.0000 </r>
       </set>
       <set comment="band 2">
        <r>  0.0000  0.2712  0.0000  0.1766  0.0000  0.0000 </r>
       </set>
       <set comment="band 3">
        <r>  0.0000  0.1766  0.0000  0.2712  0.0000  0.0000 </r>
       </set>
       <set comment="band 4">
        <r>  0.0000  0.0000  0.0000  0.0000  0.0000  0.0000 </r>
       </set>
      </set>
      <set comment="kpoint 283">
       <set comment="band 1">
        <r>  0.8303  0.0089  0.0089  0.0089  0.0000  0.0000 </r>
       </set>
       <set comment="band 2">
        <r>  0.0558  0.0935  0.0935  0.0935  0.0000  0.0000 </r>
       </set>
       <set comment="band 3">
        <r>  0.0000  0.1836  0.3301  0.0229  0.0000  0.0000 </r>
       </set>
       <set comment="band 4">
        <r>  0.0000  0.1742  0.0276  0.3348  0.0000  0.0000 </r>
       </set>
      </set>
      <set comment="kpoint 284">
       <set comment="band 1">
        <r>  0.8606  0.0066  0.0066  0.0000  0.0000  0.0000 </r>
       </set>
       <set comment="band 2">
        <r>  0.0000  0.0000  0.0000  0.3778  0.0000  0.0000 </r>
       </set>
       <set comment="band 3">
        <r>  0.0404  0.2245  0.2245  0.0000  0.0000  0.0000 </r>
       </set>
       <set comment="band 4">
        <r>  0.0000  0.3551  0.3551  0.0000  0.0000  0.0000 </r>
       </set>
      </set>
      <set comment="kpoint 285">
       <set comment="band 1">
        <r>  0.8859  0.0000  0.0064  0.0000  0.0000  0.0000 </r>
       </set>
       <set comment="band 2">
        <r>  0.0000  0.2883  0.0000  0.2456  0.0000  0.0000 </r>
       </set>
       <set comment="band 3">
        <r>  0.0000  0.2456  0.0000  0.2883  0.0000  0.0000 </r>
       </set>
       <set comment="band 4">
        <r>  0.0224  0.0000  0.7090  0.0000  0.0000  0.0000 </r>
       </set>
      </set>
      <set comment="kpoint 286">
       <set comment="band 1">
        <r>  0.9084  0.0000  0.0000  0.0000  0.0000  0.0000 </r>
       </set>
       <set comment="band 2">
        <r>  0.0000  0.0620  0.6461  0.0007  0.0000  0.0000 </r>
       </set>
       <set comment="band 3">
        <r>  0.0000  0.0070  0.0016  0.7002  0.0000  0.0000 </r>
       </set>
       <set comment="band 4">
        <r>  0.0000  0.6398  0.0610  0.0079  0.0000  0.0000 </r>
       </set>
      </set>
     </set>
    </set>
   </array>
  </projected>
 </calculation>
 <structure name="finalpos" >
  <crystal>
   <varray name="basis" >
    <v>       1.43536055       0.00000000       0.00000000 </v>
    <v>       0.00000000       1.43536055       0.00000000 </v>
    <v>       0.00000000       0.00000000       1.43536055 </v>
   </varray>
   <i name="volume">      2.95721580 </i>
   <varray name="rec_basis" >
    <v>       0.69668907       0.00000000       0.00000000 </v>
    <v>       0.00000000       0.69668907       0.00000000 </v>
    <v>       0.00000000       0.00000000       0.69668907 </v>
   </varray>
  </crystal>
  <varray name="positions" >
   <v>       0.00000000       0.00000000       0.00000000 </v>
  </varray>
 </structure>
</modeling>
