    1    1    1    1
  0.2957216E+01  0.1435361E-09  0.1435361E-09  0.1435361E-09  0.5000000E-15
  1.000000000000000E-004
  CAR 
 jump2                                   
    1   20    8
 
  0.0000000E+00  0.5000000E+00  0.0000000E+00  0.5000000E-01
   1        0.431607
   2        9.416477
   3       77.603160
   4       77.469725
   5       80.801405
   6       82.293555
   7      150.176316
   8      154.664598
 
  0.2631579E-01  0.5000000E+00  0.0000000E+00  0.5000000E-01
   1        0.478713
   2        9.466827
   3       65.887804
   4       76.401182
   5       77.782227
   6      143.798400
   7      152.647904
   8      154.933499
 
  0.5263158E-01  0.5000000E+00  0.0000000E+00  0.5000000E-01
   1        0.627232
   2        9.618118
   3       64.209453
   4       75.178754
   5       82.884891
   6      145.320240
   7      152.207674
   8      161.440020
 
  0.7894737E-01  0.5000000E+00  0.0000000E+00  0.5000000E-01
   1        0.861807
   2        9.869823
   3       61.791194
   4       74.388950
   5       93.365908
   6      137.699790
   7      151.716622
   8      155.740074
 
  0.1052632E+00  0.5000000E+00  0.0000000E+00  0.5000000E-01
   1        1.206620
   2       10.226242
   3       59.007199
   4       75.957643
   5       82.080028
   6      146.501138
   7      153.173102
   8      167.349321
 
  0.1315789E+00  0.5000000E+00  0.0000000E+00  0.5000000E-01
   1        1.626547
   2       10.679076
   3       56.082787
   4       74.221830
   5       80.961056
   6       83.209275
   7      132.663156
   8      150.103605
 
  0.1578947E+00  0.5000000E+00  0.0000000E+00  0.5000000E-01
   1        2.137832
   2       11.232404
   3       53.105241
   4       76.606121
   5       81.095356
   6      100.797440
   7      138.779064
   8      151.253975
 
  0.1842105E+00  0.5000000E+00  0.0000000E+00  0.5000000E-01
   1        2.738871
   2       11.886109
   3       50.196676
   4       79.541529
   5       82.972935
   6       85.193567
   7      110.190478
   8      170.158736
 
  0.2105263E+00  0.5000000E+00  0.0000000E+00  0.5000000E-01
   1        3.427449
   2       12.640022
   3       47.307484
   4       77.803107
   5       83.811252
   6      106.040212
   7      155.469393
   8      185.746500
 
  0.2368421E+00  0.5000000E+00  0.0000000E+00  0.5000000E-01
   1        4.189054
   2       13.493642
   3       44.466991
   4       77.853494
   5       82.716282
   6       86.409769
   7      119.958682
   8      191.595208
 
  0.2631579E+00  0.5000000E+00  0.0000000E+00  0.5000000E-01
   1        5.040869
   2       14.447120
   3       41.779751
   4       79.020813
   5       84.105026
   6       86.755468
   7      158.619066
   8      194.186863
 
  0.2894737E+00  0.5000000E+00  0.0000000E+00  0.5000000E-01
   1        5.966375
   2       15.499680
   3       39.204340
   4       79.172802
   5       88.098910
   6      118.913354
   7      181.760735
   8      214.088238
 
  0.3157895E+00  0.5000000E+00  0.0000000E+00  0.5000000E-01
   1        6.956460
   2       16.650484
   3       36.752058
   4       80.220138
   5       87.667922
   6      112.572080
   7      115.590868
   8      186.583789
 
  0.3421053E+00  0.5000000E+00  0.0000000E+00  0.5000000E-01
   1        7.997436
   2       17.898141
   3       34.440137
   4       81.532032
   5       90.762642
   6      111.622101
   7      127.965751
   8      184.350293
 
  0.3684211E+00  0.5000000E+00  0.0000000E+00  0.5000000E-01
   1        9.068165
   2       19.240174
   3       32.291684
   4       83.767155
   5       88.624095
   6      105.861462
   7      140.157381
   8      170.053874
 
  0.3947368E+00  0.5000000E+00  0.0000000E+00  0.5000000E-01
   1       10.135169
   2       20.671721
   3       30.341526
   4       83.406245
   5       93.842444
   6      107.075139
   7      157.161864
   8      221.698849
 
  0.4210526E+00  0.5000000E+00  0.0000000E+00  0.5000000E-01
   1       11.144795
   2       22.181858
   3       28.644320
   4       34.195016
   5       84.201834
   6      106.159772
   7      153.965184
   8      160.427054
 
  0.4473684E+00  0.5000000E+00  0.0000000E+00  0.5000000E-01
   1       12.013073
   2       23.740456
   3       27.284700
   4       85.097742
   5       93.078493
   6       97.760143
   7      101.483952
   8      232.677892
 
  0.4736842E+00  0.5000000E+00  0.0000000E+00  0.5000000E-01
   1       12.642571
   2       25.233439
   3       26.381196
   4       30.335416
   5       85.800160
   6      100.735080
   7      163.302128
   8      170.979404
 
  0.5000000E+00  0.5000000E+00  0.0000000E+00  0.5000000E-01
   1       12.880848
   2       26.063402
   3       29.409604
   4       86.034443
   5       99.600506
   6      101.871260
   7      166.908709
   8      170.047915
