<?xml version="1.0" encoding="ISO-8859-1"?>
<modeling>
 <generator>
  <i name="program" type="string">vasp </i>
  <i name="version" type="string">5.2.12  </i>
  <i name="subversion" type="string">11Nov11 complex                                                      parallel </i>
  <i name="platform" type="string">LinuxIFC </i>
  <i name="date" type="string">2018 01 16 </i>
  <i name="time" type="string">21:15:49 </i>
 </generator>
 <incar>
  <i type="string" name="SYSTEM"> jump2</i>
  <i type="int" name="ISTART">     1</i>
  <i type="string" name="PREC">normal</i>
  <i type="string" name="ALGO"> veryfast</i>
  <i type="logical" name="ADDGRID"> T  </i>
  <i name="AMIN">      0.01000000</i>
  <i type="int" name="ICHARG">    11</i>
  <i type="int" name="NELM">   100</i>
  <i type="int" name="IBRION">    -1</i>
  <i name="EDIFF">      0.00010000</i>
  <i name="EDIFFG">     -0.01000000</i>
  <i type="int" name="NSW">     0</i>
  <i type="int" name="ISIF">     2</i>
  <i name="ENCUT">    325.00000000</i>
  <i type="int" name="NBANDS">     8</i>
  <i type="int" name="NEDOS">  2001</i>
  <i type="string" name="LREAL"> Auto</i>
  <i type="logical" name="LPLANE"> T  </i>
  <i type="int" name="ISMEAR">     0</i>
  <i name="SIGMA">      0.10000000</i>
  <i type="logical" name="LWAVE"> T  </i>
  <i type="logical" name="LCHARG"> F  </i>
  <i type="logical" name="LVTOT"> F  </i>
  <i type="logical" name="LVHAR"> F  </i>
  <i type="logical" name="LORBIT"> F  </i>
  <i type="int" name="NELM">   100</i>
 </incar>
 <kpoints>
  <generation param="listgenerated">
   <i name="divisions" type="int">      20 </i>
   <v>       0.00000000       0.50000000       0.00000000 </v>
   <v>       0.50000000       0.50000000       0.00000000 </v>
  </generation>
  <varray name="kpointlist" >
   <v>       0.00000000       0.50000000       0.00000000 </v>
   <v>       0.02631579       0.50000000       0.00000000 </v>
   <v>       0.05263158       0.50000000       0.00000000 </v>
   <v>       0.07894737       0.50000000       0.00000000 </v>
   <v>       0.10526316       0.50000000       0.00000000 </v>
   <v>       0.13157895       0.50000000       0.00000000 </v>
   <v>       0.15789474       0.50000000       0.00000000 </v>
   <v>       0.18421053       0.50000000       0.00000000 </v>
   <v>       0.21052632       0.50000000       0.00000000 </v>
   <v>       0.23684211       0.50000000       0.00000000 </v>
   <v>       0.26315789       0.50000000       0.00000000 </v>
   <v>       0.28947368       0.50000000       0.00000000 </v>
   <v>       0.31578947       0.50000000       0.00000000 </v>
   <v>       0.34210526       0.50000000       0.00000000 </v>
   <v>       0.36842105       0.50000000       0.00000000 </v>
   <v>       0.39473684       0.50000000       0.00000000 </v>
   <v>       0.42105263       0.50000000       0.00000000 </v>
   <v>       0.44736842       0.50000000       0.00000000 </v>
   <v>       0.47368421       0.50000000       0.00000000 </v>
   <v>       0.50000000       0.50000000       0.00000000 </v>
  </varray>
  <varray name="weights" >
   <v>       0.05000000 </v>
   <v>       0.05000000 </v>
   <v>       0.05000000 </v>
   <v>       0.05000000 </v>
   <v>       0.05000000 </v>
   <v>       0.05000000 </v>
   <v>       0.05000000 </v>
   <v>       0.05000000 </v>
   <v>       0.05000000 </v>
   <v>       0.05000000 </v>
   <v>       0.05000000 </v>
   <v>       0.05000000 </v>
   <v>       0.05000000 </v>
   <v>       0.05000000 </v>
   <v>       0.05000000 </v>
   <v>       0.05000000 </v>
   <v>       0.05000000 </v>
   <v>       0.05000000 </v>
   <v>       0.05000000 </v>
   <v>       0.05000000 </v>
  </varray>
 </kpoints>
 <parameters>
  <separator name="general" >
   <i type="string" name="SYSTEM">jump2</i>
   <i type="logical" name="LCOMPAT"> F  </i>
  </separator>
  <separator name="electronic" >
   <i type="string" name="PREC">normal</i>
   <i name="ENMAX">    325.00000000</i>
   <i name="ENAUG">    400.00000000</i>
   <i name="EDIFF">      0.00010000</i>
   <i type="int" name="IALGO">    48</i>
   <i type="int" name="IWAVPR">    10</i>
   <i type="int" name="NBANDS">     8</i>
   <i name="NELECT">      1.00000000</i>
   <i type="int" name="TURBO">     0</i>
   <i type="int" name="IRESTART">     0</i>
   <i type="int" name="NREBOOT">     0</i>
   <i type="int" name="NMIN">     0</i>
   <i name="EREF">      0.00000000</i>
   <separator name="electronic smearing" >
    <i type="int" name="ISMEAR">     0</i>
    <i name="SIGMA">      0.10000000</i>
    <i name="KSPACING">      0.50000000</i>
    <i type="logical" name="KGAMMA"> T  </i>
   </separator>
   <separator name="electronic projectors" >
    <i type="logical" name="LREAL"> T  </i>
    <v name="ROPT">     -0.00050000</v>
    <i type="int" name="LMAXPAW">  -100</i>
    <i type="int" name="LMAXMIX">     2</i>
    <i type="logical" name="NLSPLINE"> F  </i>
   </separator>
   <separator name="electronic startup" >
    <i type="int" name="ISTART">     1</i>
    <i type="int" name="ICHARG">    11</i>
    <i type="int" name="INIWAV">     1</i>
   </separator>
   <separator name="electronic spin" >
    <i type="int" name="ISPIN">     1</i>
    <i type="logical" name="LNONCOLLINEAR"> F  </i>
    <v name="MAGMOM">      1.00000000</v>
    <i name="NUPDOWN">     -1.00000000</i>
    <i type="logical" name="LSORBIT"> F  </i>
    <v name="SAXIS">      0.00000000      0.00000000      1.00000000</v>
    <i type="logical" name="LSPIRAL"> F  </i>
    <v name="QSPIRAL">      0.00000000      0.00000000      0.00000000</v>
    <i type="logical" name="LZEROZ"> F  </i>
   </separator>
   <separator name="electronic exchange-correlation" >
    <i type="logical" name="LASPH"> F  </i>
    <i type="logical" name="LMETAGGA"> F  </i>
   </separator>
   <separator name="electronic convergence" >
    <i type="int" name="NELM">   100</i>
    <i type="int" name="NELMDL">     0</i>
    <i type="int" name="NELMIN">     2</i>
    <i name="ENINI">    325.00000000</i>
    <separator name="electronic convergence detail" >
     <i type="logical" name="LDIAG"> T  </i>
     <i type="logical" name="LSUBROT"> T  </i>
     <i name="WEIMIN">      0.00000000</i>
     <i name="EBREAK">      0.00000313</i>
     <i name="DEPER">      0.30000000</i>
     <i type="int" name="NRMM">     4</i>
     <i name="TIME">      0.40000000</i>
    </separator>
   </separator>
   <separator name="electronic mixer" >
    <i name="AMIX">      0.40000000</i>
    <i name="BMIX">      1.00000000</i>
    <i name="AMIN">      0.01000000</i>
    <i name="AMIX_MAG">      1.60000000</i>
    <i name="BMIX_MAG">      1.00000000</i>
    <separator name="electronic mixer details" >
     <i type="int" name="IMIX">     4</i>
     <i type="int" name="MAXMIX">   -45</i>
     <i name="WC">    100.00000000</i>
     <i type="int" name="INIMIX">     1</i>
     <i type="int" name="MIXPRE">     1</i>
     <i type="int" name="MREMOVE">     5</i>
    </separator>
   </separator>
   <separator name="electronic dipolcorrection" >
    <i type="logical" name="LDIPOL"> F  </i>
    <i type="logical" name="LMONO"> F  </i>
    <i type="int" name="IDIPOL">     0</i>
    <i name="EPSILON">      1.00000000</i>
    <v name="DIPOL">   -100.00000000   -100.00000000   -100.00000000</v>
    <i name="EFIELD">      0.00000000</i>
   </separator>
  </separator>
  <separator name="grids" >
   <i type="int" name="NGX">     6</i>
   <i type="int" name="NGY">     6</i>
   <i type="int" name="NGZ">     6</i>
   <i type="int" name="NGXF">    12</i>
   <i type="int" name="NGYF">    12</i>
   <i type="int" name="NGZF">    12</i>
   <i type="logical" name="ADDGRID"> T  </i>
  </separator>
  <separator name="ionic" >
   <i type="int" name="NSW">     0</i>
   <i type="int" name="IBRION">    -1</i>
   <i type="int" name="ISIF">     2</i>
   <i name="PSTRESS">      0.00000000</i>
   <i name="EDIFFG">     -0.01000000</i>
   <i type="int" name="NFREE">     0</i>
   <i name="POTIM">      0.50000000</i>
   <i name="SMASS">     -3.00000000</i>
   <i name="SCALEE">      1.00000000</i>
  </separator>
  <separator name="ionic md" >
   <i name="TEBEG">      0.00010000</i>
   <i name="TEEND">      0.00010000</i>
   <i type="int" name="NBLOCK">     1</i>
   <i type="int" name="KBLOCK">     1</i>
   <i type="int" name="NPACO">   256</i>
   <i name="APACO">     16.00000000</i>
  </separator>
  <separator name="symmetry" >
   <i type="int" name="ISYM">     2</i>
   <i name="SYMPREC">      0.00001000</i>
  </separator>
  <separator name="dos" >
   <i type="logical" name="LORBIT"> F  </i>
   <v name="RWIGS">     -1.00000000</v>
   <i type="int" name="NEDOS">  2001</i>
   <i name="EMIN">     10.00000000</i>
   <i name="EMAX">    -10.00000000</i>
   <i name="EFERMI">      0.00000000</i>
  </separator>
  <separator name="writing" >
   <i type="int" name="NWRITE">     2</i>
   <i type="logical" name="LWAVE"> T  </i>
   <i type="logical" name="LCHARG"> F  </i>
   <i type="logical" name="LPARD"> F  </i>
   <i type="logical" name="LVTOT"> F  </i>
   <i type="logical" name="LVHAR"> F  </i>
   <i type="logical" name="LELF"> F  </i>
   <i type="logical" name="LOPTICS"> F  </i>
   <v name="STM">      0.00000000      0.00000000      0.00000000      0.00000000      0.00000000      0.00000000      0.00000000</v>
  </separator>
  <separator name="performance" >
   <i type="int" name="NPAR">     4</i>
   <i type="int" name="NSIM">     4</i>
   <i type="int" name="NBLK">    -1</i>
   <i type="logical" name="LPLANE"> T  </i>
   <i type="logical" name="LSCALAPACK"> T  </i>
   <i type="logical" name="LSCAAWARE"> T  </i>
   <i type="logical" name="LSCALU"> F  </i>
   <i type="logical" name="LASYNC"> F  </i>
   <i type="logical" name="LORBITALREAL"> F  </i>
  </separator>
  <separator name="miscellaneous" >
   <i type="int" name="IDIOT">     3</i>
   <i type="logical" name="LMUSIC"> F  </i>
   <v name="POMASS">      1.00000000</v>
   <v name="DARWINR">      0.00000000</v>
   <v name="DARWINV">      1.00000000</v>
   <i type="logical" name="LCORR"> T  </i>
  </separator>
  <i type="logical" name="GGA_COMPAT"> T  </i>
  <i type="logical" name="LBERRY"> F  </i>
  <i type="int" name="ICORELEVEL">     0</i>
  <i type="logical" name="LDAU"> F  </i>
  <i type="int" name="I_CONSTRAINED_M">     0</i>
  <separator name="electronic exchange-correlation" >
   <i type="string" name="GGA">--</i>
   <i type="int" name="VOSKOWN">     0</i>
   <i type="logical" name="LHFCALC"> F  </i>
   <i type="string" name="PRECFOCK"></i>
   <i type="logical" name="LHFONE"> F  </i>
   <i type="logical" name="LRHFCALC"> F  </i>
   <i type="logical" name="LTHOMAS"> F  </i>
   <i type="logical" name="LMODELHF"> F  </i>
   <i name="ENCUT4O">     -1.00000000</i>
   <i type="int" name="EXXOEP">     0</i>
   <i type="int" name="FOURORBIT">     0</i>
   <i name="AEXX">      0.00000000</i>
   <i name="HFALPHA">      0.00000000</i>
   <i name="ALDAX">      1.00000000</i>
   <i name="AGGAX">      1.00000000</i>
   <i name="ALDAC">      1.00000000</i>
   <i name="AGGAC">      1.00000000</i>
   <i type="int" name="NKREDX">     1</i>
   <i type="int" name="NKREDY">     1</i>
   <i type="int" name="NKREDZ">     1</i>
   <i type="logical" name="SHIFTRED"> F  </i>
   <i type="logical" name="ODDONLY"> F  </i>
   <i type="logical" name="EVENONLY"> F  </i>
   <i type="int" name="LMAXFOCK">     0</i>
   <i type="int" name="NMAXFOCKAE">     0</i>
   <i type="logical" name="LFOCKAEDFT"> F  </i>
   <i name="HFSCREEN">      0.00000000</i>
   <i name="HFSCREENC">      0.00000000</i>
  </separator>
  <separator name="vdW DFT" >
   <i type="logical" name="LUSE_VDW"> F  </i>
   <i name="Zab_VDW">     -0.84910000</i>
   <i name="PARAM1">      0.12340000</i>
   <i name="PARAM2">      1.00000000</i>
   <i name="PARAM3">      0.00000000</i>
  </separator>
  <separator name="model GW" >
   <i type="int" name="MODEL_GW">     0</i>
   <i name="MODEL_EPS0">      1.77432948</i>
   <i name="MODEL_ALPHA">      1.00000000</i>
  </separator>
  <separator name="linear response parameters" >
   <i type="logical" name="LEPSILON"> F  </i>
   <i type="logical" name="LRPA"> F  </i>
   <i type="logical" name="LNABLA"> F  </i>
   <i type="logical" name="LVEL"> F  </i>
   <i type="int" name="KINTER">     0</i>
   <i name="CSHIFT">      0.10000000</i>
   <i name="OMEGAMAX">     -1.00000000</i>
  </separator>
  <separator name="orbital magnetization" >
   <i type="logical" name="NUCIND"> F  </i>
   <v name="MAGPOS">      0.00000000      0.00000000      0.00000000</v>
   <i type="logical" name="LNICSALL"> T  </i>
   <i type="logical" name="ORBITALMAG"> F  </i>
   <i type="logical" name="LMAGBLOCH"> F  </i>
   <i type="logical" name="LCHIMAG"> F  </i>
   <i type="logical" name="LGAUGE"> T  </i>
   <i type="int" name="MAGATOM">     0</i>
   <v name="MAGDIPOL">      0.00000000      0.00000000      0.00000000</v>
   <v name="AVECCONST">      0.00000000      0.00000000      0.00000000</v>
  </separator>
  <separator name="response functions" >
   <i type="logical" name="LADDER"> F  </i>
   <i type="logical" name="LHARTREE"> T  </i>
   <i type="int" name="IBSE">     0</i>
   <i type="logical" name="LTCTE"> F  </i>
   <i type="logical" name="LTETE"> F  </i>
   <i type="logical" name="LFXCEPS"> F  </i>
   <i type="logical" name="L2ORDER"> F  </i>
   <i type="logical" name="LUSEW"> F  </i>
   <i name="ENCUTGW">     -2.00000000</i>
   <i name="ENCUTGWSOFT">     -2.00000000</i>
   <i name="ENCUTLF">     -1.00000000</i>
   <i type="int" name="LMAXMP2">    -1</i>
   <i name="SCISSOR">      0.00000000</i>
   <i type="int" name="NOMEGA">     0</i>
   <i type="int" name="NOMEGAR">     0</i>
   <i type="int" name="NBANDSGW">    -1</i>
   <i type="int" name="NBANDSO">    -1</i>
   <i type="int" name="NBANDSV">    -1</i>
   <i name="OPTEMAX">      0.00000000</i>
   <i type="int" name="NELM">   100</i>
   <i type="int" name="DIM">     3</i>
   <i type="int" name="ANTIRES">     0</i>
   <i name="OMEGAMAX">    -30.00000000</i>
   <i name="OMEGATL">   -200.00000000</i>
   <i type="int" name="OMEGAGRID">     0</i>
   <i name="CSHIFT">     -0.10000000</i>
   <i type="logical" name="SELFENERGY"> F  </i>
   <i type="logical" name="LSPECTRAL"> F  </i>
   <i type="logical" name="ODDONLYGW"> F  </i>
   <i type="logical" name="EVENONLYGW"> F  </i>
   <i type="int" name="NKREDLFX">     1</i>
   <i type="int" name="NKREDLFY">     1</i>
   <i type="int" name="NKREDLFZ">     1</i>
   <i type="int" name="MAXMEM">  1800</i>
   <i type="int" name="TELESCOPE">     0</i>
  </separator>
 </parameters>
 <atominfo>
  <atoms>       1 </atoms>
  <types>       1 </types>
  <array name="atoms" >
   <dimension dim="1">ion</dimension>
   <field type="string">element</field>
   <field type="int">atomtype</field>
   <set>
    <rc><c>H </c><c>   1</c></rc>
   </set>
  </array>
  <array name="atomtypes" >
   <dimension dim="1">type</dimension>
   <field type="int">atomspertype</field>
   <field type="string">element</field>
   <field>mass</field>
   <field>valence</field>
   <field type="string">pseudopotential</field>
   <set>
    <rc><c>   1</c><c>H </c><c>      1.00000000</c><c>      1.00000000</c><c> PAW_PBE H 15Jun2001                    </c></rc>
   </set>
  </array>
 </atominfo>
 <structure name="initialpos" >
  <crystal>
   <varray name="basis" >
    <v>       1.43536055       0.00000000       0.00000000 </v>
    <v>       0.00000000       1.43536055       0.00000000 </v>
    <v>       0.00000000       0.00000000       1.43536055 </v>
   </varray>
   <i name="volume">      2.95721580 </i>
   <varray name="rec_basis" >
    <v>       0.69668907       0.00000000       0.00000000 </v>
    <v>       0.00000000       0.69668907       0.00000000 </v>
    <v>       0.00000000       0.00000000       0.69668907 </v>
   </varray>
  </crystal>
  <varray name="positions" >
   <v>       0.00000000       0.00000000       0.00000000 </v>
  </varray>
 </structure>
 <calculation>
  <scstep>
   <time name="diag">    0.02    0.04</time>
   <time name="diis">    0.02    0.05</time>
   <time name="orth">    0.00    0.01</time>
   <time name="total">    0.05    0.10</time>
   <energy>
    <i name="alphaZ">      0.82381590 </i>
    <i name="ewald">    -14.23213143 </i>
    <i name="hartreedc">     -0.36095373 </i>
    <i name="XCdc">      2.76127529 </i>
    <i name="pawpsdc">      1.82026030 </i>
    <i name="pawaedc">     -1.83252046 </i>
    <i name="eentropy">     -0.00000000 </i>
    <i name="bandstr">      1.92024998 </i>
    <i name="atom">     12.45896517 </i>
    <i name="e_fr_energy">      3.35896102 </i>
    <i name="e_wo_entrp">      3.35896102 </i>
    <i name="e_0_energy">      3.35896102 </i>
   </energy>
  </scstep>
  <scstep>
   <time name="diag">    0.02    0.04</time>
   <time name="diis">    0.02    0.05</time>
   <time name="orth">    0.00    0.01</time>
   <time name="total">    0.04    0.09</time>
   <energy>
    <i name="e_fr_energy">      3.21128642 </i>
    <i name="e_wo_entrp">      3.21128642 </i>
    <i name="e_0_energy">      3.21128642 </i>
   </energy>
  </scstep>
  <scstep>
   <time name="diag">    0.02    0.04</time>
   <time name="diis">    0.02    0.04</time>
   <time name="orth">    0.00    0.01</time>
   <time name="total">    0.05    0.09</time>
   <energy>
    <i name="alphaZ">      0.82381590 </i>
    <i name="ewald">    -14.23213143 </i>
    <i name="hartreedc">     -0.36095373 </i>
    <i name="XCdc">      2.76127529 </i>
    <i name="pawpsdc">      1.82026030 </i>
    <i name="pawaedc">     -1.83252046 </i>
    <i name="eentropy">     -0.00000000 </i>
    <i name="bandstr">      1.77257300 </i>
    <i name="atom">     12.45896517 </i>
    <i name="e_fr_energy">      3.21128404 </i>
    <i name="e_wo_entrp">      3.21128404 </i>
    <i name="e_0_energy">      3.21128404 </i>
   </energy>
  </scstep>
  <parameters_embedded>
   <separator name="dft+d2" >
    <i type="logical" name="LVDW"> F  </i>
   </separator>
  </parameters_embedded>
  <structure>
   <crystal>
    <varray name="basis" >
     <v>       1.43536055       0.00000000       0.00000000 </v>
     <v>       0.00000000       1.43536055       0.00000000 </v>
     <v>       0.00000000       0.00000000       1.43536055 </v>
    </varray>
    <i name="volume">      2.95721580 </i>
    <varray name="rec_basis" >
     <v>       0.69668907       0.00000000       0.00000000 </v>
     <v>       0.00000000       0.69668907       0.00000000 </v>
     <v>       0.00000000       0.00000000       0.69668907 </v>
    </varray>
   </crystal>
   <varray name="positions" >
    <v>       0.00000000       0.00000000       0.00000000 </v>
   </varray>
  </structure>
  <varray name="forces" >
   <v>       0.00000000       0.00000000       0.00000000 </v>
  </varray>
  <varray name="stress" >
   <v>    2799.02042292      -0.00000000       0.00000000 </v>
   <v>       0.00000000    2799.02042292       0.00000000 </v>
   <v>      -0.00000000      -0.00000000    2799.02042292 </v>
  </varray>
  <energy>
   <i name="e_fr_energy">      3.21128404 </i>
   <i name="e_wo_entrp">      3.21128404 </i>
   <i name="e_0_energy">     -0.00000000 </i>
  </energy>
  <time name="totalsc">    0.17    0.35</time>
  <eigenvalues>
   <array>
    <dimension dim="1">band</dimension>
    <dimension dim="2">kpoint</dimension>
    <dimension dim="3">spin</dimension>
    <field>eigene</field>
    <field>occ</field>
    <set>
     <set comment="spin 1">
      <set comment="kpoint 1">
       <r>    0.4316    1.0000 </r>
       <r>    9.4165    0.0000 </r>
       <r>   77.6032    0.0000 </r>
       <r>   77.4697    0.0000 </r>
       <r>   80.8014    0.0000 </r>
       <r>   82.2936    0.0000 </r>
       <r>  150.1763    0.0000 </r>
       <r>  154.6646    0.0000 </r>
      </set>
      <set comment="kpoint 2">
       <r>    0.4787    1.0000 </r>
       <r>    9.4668    0.0000 </r>
       <r>   65.8878    0.0000 </r>
       <r>   76.4012    0.0000 </r>
       <r>   77.7822    0.0000 </r>
       <r>  143.7984    0.0000 </r>
       <r>  152.6479    0.0000 </r>
       <r>  154.9335    0.0000 </r>
      </set>
      <set comment="kpoint 3">
       <r>    0.6272    1.0000 </r>
       <r>    9.6181    0.0000 </r>
       <r>   64.2095    0.0000 </r>
       <r>   75.1788    0.0000 </r>
       <r>   82.8849    0.0000 </r>
       <r>  145.3202    0.0000 </r>
       <r>  152.2077    0.0000 </r>
       <r>  161.4400    0.0000 </r>
      </set>
      <set comment="kpoint 4">
       <r>    0.8618    1.0000 </r>
       <r>    9.8698    0.0000 </r>
       <r>   61.7912    0.0000 </r>
       <r>   74.3890    0.0000 </r>
       <r>   93.3659    0.0000 </r>
       <r>  137.6998    0.0000 </r>
       <r>  151.7166    0.0000 </r>
       <r>  155.7401    0.0000 </r>
      </set>
      <set comment="kpoint 5">
       <r>    1.2066    1.0000 </r>
       <r>   10.2262    0.0000 </r>
       <r>   59.0072    0.0000 </r>
       <r>   75.9576    0.0000 </r>
       <r>   82.0800    0.0000 </r>
       <r>  146.5011    0.0000 </r>
       <r>  153.1731    0.0000 </r>
       <r>  167.3493    0.0000 </r>
      </set>
      <set comment="kpoint 6">
       <r>    1.6265    1.0000 </r>
       <r>   10.6791    0.0000 </r>
       <r>   56.0828    0.0000 </r>
       <r>   74.2218    0.0000 </r>
       <r>   80.9611    0.0000 </r>
       <r>   83.2093    0.0000 </r>
       <r>  132.6632    0.0000 </r>
       <r>  150.1036    0.0000 </r>
      </set>
      <set comment="kpoint 7">
       <r>    2.1378    1.0000 </r>
       <r>   11.2324    0.0000 </r>
       <r>   53.1052    0.0000 </r>
       <r>   76.6061    0.0000 </r>
       <r>   81.0954    0.0000 </r>
       <r>  100.7974    0.0000 </r>
       <r>  138.7791    0.0000 </r>
       <r>  151.2540    0.0000 </r>
      </set>
      <set comment="kpoint 8">
       <r>    2.7389    1.0000 </r>
       <r>   11.8861    0.0000 </r>
       <r>   50.1967    0.0000 </r>
       <r>   79.5415    0.0000 </r>
       <r>   82.9729    0.0000 </r>
       <r>   85.1936    0.0000 </r>
       <r>  110.1905    0.0000 </r>
       <r>  170.1587    0.0000 </r>
      </set>
      <set comment="kpoint 9">
       <r>    3.4274    1.0000 </r>
       <r>   12.6400    0.0000 </r>
       <r>   47.3075    0.0000 </r>
       <r>   77.8031    0.0000 </r>
       <r>   83.8113    0.0000 </r>
       <r>  106.0402    0.0000 </r>
       <r>  155.4694    0.0000 </r>
       <r>  185.7465    0.0000 </r>
      </set>
      <set comment="kpoint 10">
       <r>    4.1891    1.0000 </r>
       <r>   13.4936    0.0000 </r>
       <r>   44.4670    0.0000 </r>
       <r>   77.8535    0.0000 </r>
       <r>   82.7163    0.0000 </r>
       <r>   86.4098    0.0000 </r>
       <r>  119.9587    0.0000 </r>
       <r>  191.5952    0.0000 </r>
      </set>
      <set comment="kpoint 11">
       <r>    5.0409    0.0000 </r>
       <r>   14.4471    0.0000 </r>
       <r>   41.7798    0.0000 </r>
       <r>   79.0208    0.0000 </r>
       <r>   84.1050    0.0000 </r>
       <r>   86.7555    0.0000 </r>
       <r>  158.6191    0.0000 </r>
       <r>  194.1869    0.0000 </r>
      </set>
      <set comment="kpoint 12">
       <r>    5.9664    0.0000 </r>
       <r>   15.4997    0.0000 </r>
       <r>   39.2043    0.0000 </r>
       <r>   79.1728    0.0000 </r>
       <r>   88.0989    0.0000 </r>
       <r>  118.9134    0.0000 </r>
       <r>  181.7607    0.0000 </r>
       <r>  214.0882    0.0000 </r>
      </set>
      <set comment="kpoint 13">
       <r>    6.9565    0.0000 </r>
       <r>   16.6505    0.0000 </r>
       <r>   36.7521    0.0000 </r>
       <r>   80.2201    0.0000 </r>
       <r>   87.6679    0.0000 </r>
       <r>  112.5721    0.0000 </r>
       <r>  115.5909    0.0000 </r>
       <r>  186.5838    0.0000 </r>
      </set>
      <set comment="kpoint 14">
       <r>    7.9974    0.0000 </r>
       <r>   17.8981    0.0000 </r>
       <r>   34.4401    0.0000 </r>
       <r>   81.5320    0.0000 </r>
       <r>   90.7626    0.0000 </r>
       <r>  111.6221    0.0000 </r>
       <r>  127.9658    0.0000 </r>
       <r>  184.3503    0.0000 </r>
      </set>
      <set comment="kpoint 15">
       <r>    9.0682    0.0000 </r>
       <r>   19.2402    0.0000 </r>
       <r>   32.2917    0.0000 </r>
       <r>   83.7672    0.0000 </r>
       <r>   88.6241    0.0000 </r>
       <r>  105.8615    0.0000 </r>
       <r>  140.1574    0.0000 </r>
       <r>  170.0539    0.0000 </r>
      </set>
      <set comment="kpoint 16">
       <r>   10.1352    0.0000 </r>
       <r>   20.6717    0.0000 </r>
       <r>   30.3415    0.0000 </r>
       <r>   83.4062    0.0000 </r>
       <r>   93.8424    0.0000 </r>
       <r>  107.0751    0.0000 </r>
       <r>  157.1619    0.0000 </r>
       <r>  221.6988    0.0000 </r>
      </set>
      <set comment="kpoint 17">
       <r>   11.1448    0.0000 </r>
       <r>   22.1819    0.0000 </r>
       <r>   28.6443    0.0000 </r>
       <r>   34.1950    0.0000 </r>
       <r>   84.2018    0.0000 </r>
       <r>  106.1598    0.0000 </r>
       <r>  153.9652    0.0000 </r>
       <r>  160.4271    0.0000 </r>
      </set>
      <set comment="kpoint 18">
       <r>   12.0131    0.0000 </r>
       <r>   23.7405    0.0000 </r>
       <r>   27.2847    0.0000 </r>
       <r>   85.0977    0.0000 </r>
       <r>   93.0785    0.0000 </r>
       <r>   97.7601    0.0000 </r>
       <r>  101.4840    0.0000 </r>
       <r>  232.6779    0.0000 </r>
      </set>
      <set comment="kpoint 19">
       <r>   12.6426    0.0000 </r>
       <r>   25.2334    0.0000 </r>
       <r>   26.3812    0.0000 </r>
       <r>   30.3354    0.0000 </r>
       <r>   85.8002    0.0000 </r>
       <r>  100.7351    0.0000 </r>
       <r>  163.3021    0.0000 </r>
       <r>  170.9794    0.0000 </r>
      </set>
      <set comment="kpoint 20">
       <r>   12.8808    0.0000 </r>
       <r>   26.0634    0.0000 </r>
       <r>   29.4096    0.0000 </r>
       <r>   86.0344    0.0000 </r>
       <r>   99.6005    0.0000 </r>
       <r>  101.8713    0.0000 </r>
       <r>  166.9087    0.0000 </r>
       <r>  170.0479    0.0000 </r>
      </set>
     </set>
    </set>
   </array>
  </eigenvalues>
  <separator name="orbital magnetization" >
   <v name="MAGDIPOLOUT">      0.00000000      0.00000000      0.00000000</v>
  </separator>
  <dos>
   <i name="efermi">      4.61408148 </i>
   <total>
    <array>
     <dimension dim="1">gridpoints</dimension>
     <dimension dim="2">spin</dimension>
     <field>energy</field>
     <field>total</field>
     <field>integrated</field>
     <set>
      <set comment="spin 1">
       <r>   -11.1807     0.0000     0.0000 </r>
       <r>   -11.0530     0.0000     0.0000 </r>
       <r>   -10.9252     0.0000     0.0000 </r>
       <r>   -10.7975     0.0000     0.0000 </r>
       <r>   -10.6698     0.0000     0.0000 </r>
       <r>   -10.5420     0.0000     0.0000 </r>
       <r>   -10.4143     0.0000     0.0000 </r>
       <r>   -10.2866     0.0000     0.0000 </r>
       <r>   -10.1588     0.0000     0.0000 </r>
       <r>   -10.0311     0.0000     0.0000 </r>
       <r>    -9.9034     0.0000     0.0000 </r>
       <r>    -9.7756     0.0000     0.0000 </r>
       <r>    -9.6479     0.0000     0.0000 </r>
       <r>    -9.5201     0.0000     0.0000 </r>
       <r>    -9.3924     0.0000     0.0000 </r>
       <r>    -9.2647     0.0000     0.0000 </r>
       <r>    -9.1369     0.0000     0.0000 </r>
       <r>    -9.0092     0.0000     0.0000 </r>
       <r>    -8.8815     0.0000     0.0000 </r>
       <r>    -8.7537     0.0000     0.0000 </r>
       <r>    -8.6260     0.0000     0.0000 </r>
       <r>    -8.4983     0.0000     0.0000 </r>
       <r>    -8.3705     0.0000     0.0000 </r>
       <r>    -8.2428     0.0000     0.0000 </r>
       <r>    -8.1151     0.0000     0.0000 </r>
       <r>    -7.9873     0.0000     0.0000 </r>
       <r>    -7.8596     0.0000     0.0000 </r>
       <r>    -7.7318     0.0000     0.0000 </r>
       <r>    -7.6041     0.0000     0.0000 </r>
       <r>    -7.4764     0.0000     0.0000 </r>
       <r>    -7.3486     0.0000     0.0000 </r>
       <r>    -7.2209     0.0000     0.0000 </r>
       <r>    -7.0932     0.0000     0.0000 </r>
       <r>    -6.9654     0.0000     0.0000 </r>
       <r>    -6.8377     0.0000     0.0000 </r>
       <r>    -6.7100     0.0000     0.0000 </r>
       <r>    -6.5822     0.0000     0.0000 </r>
       <r>    -6.4545     0.0000     0.0000 </r>
       <r>    -6.3268     0.0000     0.0000 </r>
       <r>    -6.1990     0.0000     0.0000 </r>
       <r>    -6.0713     0.0000     0.0000 </r>
       <r>    -5.9436     0.0000     0.0000 </r>
       <r>    -5.8158     0.0000     0.0000 </r>
       <r>    -5.6881     0.0000     0.0000 </r>
       <r>    -5.5603     0.0000     0.0000 </r>
       <r>    -5.4326     0.0000     0.0000 </r>
       <r>    -5.3049     0.0000     0.0000 </r>
       <r>    -5.1771     0.0000     0.0000 </r>
       <r>    -5.0494     0.0000     0.0000 </r>
       <r>    -4.9217     0.0000     0.0000 </r>
       <r>    -4.7939     0.0000     0.0000 </r>
       <r>    -4.6662     0.0000     0.0000 </r>
       <r>    -4.5385     0.0000     0.0000 </r>
       <r>    -4.4107     0.0000     0.0000 </r>
       <r>    -4.2830     0.0000     0.0000 </r>
       <r>    -4.1553     0.0000     0.0000 </r>
       <r>    -4.0275     0.0000     0.0000 </r>
       <r>    -3.8998     0.0000     0.0000 </r>
       <r>    -3.7721     0.0000     0.0000 </r>
       <r>    -3.6443     0.0000     0.0000 </r>
       <r>    -3.5166     0.0000     0.0000 </r>
       <r>    -3.3888     0.0000     0.0000 </r>
       <r>    -3.2611     0.0000     0.0000 </r>
       <r>    -3.1334     0.0000     0.0000 </r>
       <r>    -3.0056     0.0000     0.0000 </r>
       <r>    -2.8779     0.0000     0.0000 </r>
       <r>    -2.7502     0.0000     0.0000 </r>
       <r>    -2.6224     0.0000     0.0000 </r>
       <r>    -2.4947     0.0000     0.0000 </r>
       <r>    -2.3670     0.0000     0.0000 </r>
       <r>    -2.2392     0.0000     0.0000 </r>
       <r>    -2.1115     0.0000     0.0000 </r>
       <r>    -1.9838     0.0000     0.0000 </r>
       <r>    -1.8560     0.0000     0.0000 </r>
       <r>    -1.7283     0.0000     0.0000 </r>
       <r>    -1.6005     0.0000     0.0000 </r>
       <r>    -1.4728     0.0000     0.0000 </r>
       <r>    -1.3451     0.0000     0.0000 </r>
       <r>    -1.2173     0.0000     0.0000 </r>
       <r>    -1.0896     0.0000     0.0000 </r>
       <r>    -0.9619     0.0000     0.0000 </r>
       <r>    -0.8341     0.0000     0.0000 </r>
       <r>    -0.7064     0.0000     0.0000 </r>
       <r>    -0.5787     0.0000     0.0000 </r>
       <r>    -0.4509     0.0000     0.0000 </r>
       <r>    -0.3232     0.0000     0.0000 </r>
       <r>    -0.1955     0.0000     0.0000 </r>
       <r>    -0.0677     0.0000     0.0000 </r>
       <r>     0.0600     0.0000     0.0000 </r>
       <r>     0.1877     0.0002     0.0000 </r>
       <r>     0.3155     0.0473     0.0061 </r>
       <r>     0.4432     0.6396     0.0878 </r>
       <r>     0.5710     0.9512     0.2093 </r>
       <r>     0.6987     0.5956     0.2853 </r>
       <r>     0.8264     0.3543     0.3306 </r>
       <r>     0.9542     0.4685     0.3904 </r>
       <r>     1.0819     0.1045     0.4038 </r>
       <r>     1.2096     0.3750     0.4517 </r>
       <r>     1.3374     0.3529     0.4968 </r>
       <r>     1.4651     0.0339     0.5011 </r>
       <r>     1.5928     0.2393     0.5317 </r>
       <r>     1.7206     0.4630     0.5908 </r>
       <r>     1.8483     0.0712     0.5999 </r>
       <r>     1.9760     0.0093     0.6011 </r>
       <r>     2.1038     0.2380     0.6315 </r>
       <r>     2.2315     0.4637     0.6907 </r>
       <r>     2.3593     0.0718     0.6999 </r>
       <r>     2.4870     0.0008     0.7000 </r>
       <r>     2.6147     0.0308     0.7040 </r>
       <r>     2.7425     0.3763     0.7520 </r>
       <r>     2.8702     0.3508     0.7968 </r>
       <r>     2.9979     0.0247     0.8000 </r>
       <r>     3.1257     0.0001     0.8000 </r>
       <r>     3.2534     0.0054     0.8007 </r>
       <r>     3.3811     0.1952     0.8256 </r>
       <r>     3.5089     0.4846     0.8875 </r>
       <r>     3.6366     0.0965     0.8998 </r>
       <r>     3.7643     0.0012     0.9000 </r>
       <r>     3.8921     0.0000     0.9000 </r>
       <r>     4.0198     0.0065     0.9008 </r>
       <r>     4.1475     0.2116     0.9279 </r>
       <r>     4.2753     0.4776     0.9889 </r>
       <r>     4.4030     0.0862     0.9999 </r>
       <r>     4.5308     0.0010     1.0000 </r>
       <r>     4.6585     0.0000     1.0000 </r>
       <r>     4.7862     0.0001     1.0000 </r>
       <r>     4.9140     0.0283     1.0036 </r>
       <r>     5.0417     0.3666     1.0505 </r>
       <r>     5.1694     0.3608     1.0965 </r>
       <r>     5.2972     0.0269     1.1000 </r>
       <r>     5.4249     0.0001     1.1000 </r>
       <r>     5.5526     0.0000     1.1000 </r>
       <r>     5.6804     0.0000     1.1000 </r>
       <r>     5.8081     0.0098     1.1013 </r>
       <r>     5.9358     0.2508     1.1333 </r>
       <r>     6.0636     0.4560     1.1915 </r>
       <r>     6.1913     0.0657     1.1999 </r>
       <r>     6.3191     0.0006     1.2000 </r>
       <r>     6.4468     0.0000     1.2000 </r>
       <r>     6.5745     0.0000     1.2000 </r>
       <r>     6.7023     0.0001     1.2000 </r>
       <r>     6.8300     0.0287     1.2037 </r>
       <r>     6.9577     0.3682     1.2507 </r>
       <r>     7.0855     0.3592     1.2966 </r>
       <r>     7.2132     0.0265     1.3000 </r>
       <r>     7.3409     0.0001     1.3000 </r>
       <r>     7.4687     0.0000     1.3000 </r>
       <r>     7.5964     0.0000     1.3000 </r>
       <r>     7.7241     0.0000     1.3000 </r>
       <r>     7.8519     0.0154     1.3020 </r>
       <r>     7.9796     0.2981     1.3400 </r>
       <r>     8.1073     0.4223     1.3940 </r>
       <r>     8.2351     0.0467     1.4000 </r>
       <r>     8.3628     0.0003     1.4000 </r>
       <r>     8.4906     0.0000     1.4000 </r>
       <r>     8.6183     0.0000     1.4000 </r>
       <r>     8.7460     0.0000     1.4000 </r>
       <r>     8.8738     0.0023     1.4003 </r>
       <r>     9.0015     0.1330     1.4173 </r>
       <r>     9.1292     0.4957     1.4806 </r>
       <r>     9.2570     0.1594     1.5010 </r>
       <r>     9.3847     0.3445     1.5450 </r>
       <r>     9.5124     0.9949     1.6721 </r>
       <r>     9.6402     0.7002     1.7615 </r>
       <r>     9.7679     0.3464     1.8058 </r>
       <r>     9.8956     0.4581     1.8643 </r>
       <r>    10.0234     0.3141     1.9044 </r>
       <r>    10.1511     0.5395     1.9733 </r>
       <r>    10.2788     0.7964     2.0750 </r>
       <r>    10.4066     0.1911     2.0995 </r>
       <r>    10.5343     0.0201     2.1020 </r>
       <r>    10.6621     0.3011     2.1405 </r>
       <r>    10.7898     0.4199     2.1941 </r>
       <r>    10.9175     0.0462     2.2000 </r>
       <r>    11.0453     0.0653     2.2084 </r>
       <r>    11.1730     0.6042     2.2855 </r>
       <r>    11.3007     0.7546     2.3819 </r>
       <r>    11.4285     0.1392     2.3997 </r>
       <r>    11.5562     0.0022     2.4000 </r>
       <r>    11.6839     0.0017     2.4002 </r>
       <r>    11.8117     0.1146     2.4148 </r>
       <r>    11.9394     0.6066     2.4923 </r>
       <r>    12.0671     0.6649     2.5773 </r>
       <r>    12.1949     0.1741     2.5995 </r>
       <r>    12.3226     0.0040     2.6000 </r>
       <r>    12.4504     0.0054     2.6007 </r>
       <r>    12.5781     0.2854     2.6371 </r>
       <r>    12.7058     0.9971     2.7645 </r>
       <r>    12.8336     0.4699     2.8245 </r>
       <r>    12.9613     0.4909     2.8872 </r>
       <r>    13.0890     0.0987     2.8998 </r>
       <r>    13.2168     0.0013     2.9000 </r>
       <r>    13.3445     0.0136     2.9017 </r>
       <r>    13.4722     0.2846     2.9381 </r>
       <r>    13.6000     0.4326     2.9934 </r>
       <r>    13.7277     0.0516     3.0000 </r>
       <r>    13.8554     0.0004     3.0000 </r>
       <r>    13.9832     0.0000     3.0000 </r>
       <r>    14.1109     0.0000     3.0000 </r>
       <r>    14.2386     0.0013     3.0002 </r>
       <r>    14.3664     0.0980     3.0127 </r>
       <r>    14.4941     0.4855     3.0747 </r>
       <r>    14.6219     0.1929     3.0993 </r>
       <r>    14.7496     0.0053     3.1000 </r>
       <r>    14.8773     0.0000     3.1000 </r>
       <r>    15.0051     0.0000     3.1000 </r>
       <r>    15.1328     0.0000     3.1000 </r>
       <r>    15.2605     0.0003     3.1000 </r>
       <r>    15.3883     0.0448     3.1058 </r>
       <r>    15.5160     0.4178     3.1591 </r>
       <r>    15.6437     0.3037     3.1979 </r>
       <r>    15.7715     0.0162     3.2000 </r>
       <r>    15.8992     0.0000     3.2000 </r>
       <r>    16.0269     0.0000     3.2000 </r>
       <r>    16.1547     0.0000     3.2000 </r>
       <r>    16.2824     0.0000     3.2000 </r>
       <r>    16.4102     0.0003     3.2000 </r>
       <r>    16.5379     0.0433     3.2056 </r>
       <r>    16.6656     0.4142     3.2585 </r>
       <r>    16.7934     0.3081     3.2978 </r>
       <r>    16.9211     0.0169     3.3000 </r>
       <r>    17.0488     0.0001     3.3000 </r>
       <r>    17.1766     0.0000     3.3000 </r>
       <r>    17.3043     0.0000     3.3000 </r>
       <r>    17.4320     0.0000     3.3000 </r>
       <r>    17.5598     0.0000     3.3000 </r>
       <r>    17.6875     0.0011     3.3001 </r>
       <r>    17.8152     0.0932     3.3121 </r>
       <r>    17.9430     0.4826     3.3737 </r>
       <r>    18.0707     0.2002     3.3993 </r>
       <r>    18.1984     0.0057     3.4000 </r>
       <r>    18.3262     0.0000     3.4000 </r>
       <r>    18.4539     0.0000     3.4000 </r>
       <r>    18.5817     0.0000     3.4000 </r>
       <r>    18.7094     0.0000     3.4000 </r>
       <r>    18.8371     0.0000     3.4000 </r>
       <r>    18.9649     0.0000     3.4000 </r>
       <r>    19.0926     0.0144     3.4018 </r>
       <r>    19.2203     0.2905     3.4390 </r>
       <r>    19.3481     0.4282     3.4936 </r>
       <r>    19.4758     0.0494     3.5000 </r>
       <r>    19.6035     0.0003     3.5000 </r>
       <r>    19.7313     0.0000     3.5000 </r>
       <r>    19.8590     0.0000     3.5000 </r>
       <r>    19.9867     0.0000     3.5000 </r>
       <r>    20.1145     0.0000     3.5000 </r>
       <r>    20.2422     0.0000     3.5000 </r>
       <r>    20.3700     0.0000     3.5000 </r>
       <r>    20.4977     0.0054     3.5007 </r>
       <r>    20.6254     0.1952     3.5256 </r>
       <r>    20.7532     0.4846     3.5875 </r>
       <r>    20.8809     0.0964     3.5998 </r>
       <r>    21.0086     0.0012     3.6000 </r>
       <r>    21.1364     0.0000     3.6000 </r>
       <r>    21.2641     0.0000     3.6000 </r>
       <r>    21.3918     0.0000     3.6000 </r>
       <r>    21.5196     0.0000     3.6000 </r>
       <r>    21.6473     0.0000     3.6000 </r>
       <r>    21.7750     0.0000     3.6000 </r>
       <r>    21.9028     0.0000     3.6000 </r>
       <r>    22.0305     0.0126     3.6016 </r>
       <r>    22.1582     0.2764     3.6369 </r>
       <r>    22.2860     0.4387     3.6930 </r>
       <r>    22.4137     0.0547     3.6999 </r>
       <r>    22.5415     0.0004     3.7000 </r>
       <r>    22.6692     0.0000     3.7000 </r>
       <r>    22.7969     0.0000     3.7000 </r>
       <r>    22.9247     0.0000     3.7000 </r>
       <r>    23.0524     0.0000     3.7000 </r>
       <r>    23.1801     0.0000     3.7000 </r>
       <r>    23.3079     0.0000     3.7000 </r>
       <r>    23.4356     0.0000     3.7000 </r>
       <r>    23.5633     0.0048     3.7006 </r>
       <r>    23.6911     0.1850     3.7242 </r>
       <r>    23.8188     0.4882     3.7866 </r>
       <r>    23.9465     0.1034     3.7998 </r>
       <r>    24.0743     0.0014     3.8000 </r>
       <r>    24.2020     0.0000     3.8000 </r>
       <r>    24.3297     0.0000     3.8000 </r>
       <r>    24.4575     0.0000     3.8000 </r>
       <r>    24.5852     0.0000     3.8000 </r>
       <r>    24.7130     0.0000     3.8000 </r>
       <r>    24.8407     0.0000     3.8000 </r>
       <r>    24.9684     0.0001     3.8000 </r>
       <r>    25.0962     0.0204     3.8026 </r>
       <r>    25.2239     0.3290     3.8446 </r>
       <r>    25.3516     0.3964     3.8953 </r>
       <r>    25.4794     0.0368     3.9000 </r>
       <r>    25.6071     0.0002     3.9000 </r>
       <r>    25.7348     0.0000     3.9000 </r>
       <r>    25.8626     0.0018     3.9002 </r>
       <r>    25.9903     0.1162     3.9151 </r>
       <r>    26.1180     0.4929     3.9780 </r>
       <r>    26.2458     0.1899     4.0023 </r>
       <r>    26.3735     0.3397     4.0457 </r>
       <r>    26.5013     0.3902     4.0955 </r>
       <r>    26.6290     0.0349     4.1000 </r>
       <r>    26.7567     0.0002     4.1000 </r>
       <r>    26.8845     0.0000     4.1000 </r>
       <r>    27.0122     0.0000     4.1000 </r>
       <r>    27.1399     0.0159     4.1020 </r>
       <r>    27.2677     0.3010     4.1405 </r>
       <r>    27.3954     0.4200     4.1941 </r>
       <r>    27.5231     0.0457     4.2000 </r>
       <r>    27.6509     0.0003     4.2000 </r>
       <r>    27.7786     0.0000     4.2000 </r>
       <r>    27.9063     0.0000     4.2000 </r>
       <r>    28.0341     0.0000     4.2000 </r>
       <r>    28.1618     0.0000     4.2000 </r>
       <r>    28.2895     0.0000     4.2000 </r>
       <r>    28.4173     0.0005     4.2001 </r>
       <r>    28.5450     0.0622     4.2080 </r>
       <r>    28.6728     0.4510     4.2656 </r>
       <r>    28.8005     0.2585     4.2986 </r>
       <r>    28.9282     0.0106     4.3000 </r>
       <r>    29.0560     0.0000     4.3000 </r>
       <r>    29.1837     0.0005     4.3001 </r>
       <r>    29.3114     0.0640     4.3083 </r>
       <r>    29.4392     0.4537     4.3662 </r>
       <r>    29.5669     0.2543     4.3987 </r>
       <r>    29.6946     0.0102     4.4000 </r>
       <r>    29.8224     0.0000     4.4000 </r>
       <r>    29.9501     0.0000     4.4000 </r>
       <r>    30.0778     0.0002     4.4000 </r>
       <r>    30.2056     0.0471     4.4060 </r>
       <r>    30.3333     0.6901     4.4942 </r>
       <r>    30.4611     0.7631     4.5917 </r>
       <r>    30.5888     0.0649     4.6000 </r>
       <r>    30.7165     0.0003     4.6000 </r>
       <r>    30.8443     0.0000     4.6000 </r>
       <r>    30.9720     0.0000     4.6000 </r>
       <r>    31.0997     0.0000     4.6000 </r>
       <r>    31.2275     0.0000     4.6000 </r>
       <r>    31.3552     0.0000     4.6000 </r>
       <r>    31.4829     0.0000     4.6000 </r>
       <r>    31.6107     0.0000     4.6000 </r>
       <r>    31.7384     0.0000     4.6000 </r>
       <r>    31.8661     0.0000     4.6000 </r>
       <r>    31.9939     0.0000     4.6000 </r>
       <r>    32.1216     0.0063     4.6008 </r>
       <r>    32.2493     0.2087     4.6275 </r>
       <r>    32.3771     0.4789     4.6886 </r>
       <r>    32.5048     0.0879     4.6999 </r>
       <r>    32.6326     0.0010     4.7000 </r>
       <r>    32.7603     0.0000     4.7000 </r>
       <r>    32.8880     0.0000     4.7000 </r>
       <r>    33.0158     0.0000     4.7000 </r>
       <r>    33.1435     0.0000     4.7000 </r>
       <r>    33.2712     0.0000     4.7000 </r>
       <r>    33.3990     0.0000     4.7000 </r>
       <r>    33.5267     0.0000     4.7000 </r>
       <r>    33.6544     0.0000     4.7000 </r>
       <r>    33.7822     0.0000     4.7000 </r>
       <r>    33.9099     0.0000     4.7000 </r>
       <r>    34.0376     0.0102     4.7013 </r>
       <r>    34.1654     0.2541     4.7338 </r>
       <r>    34.2931     0.4686     4.7936 </r>
       <r>    34.4209     0.3567     4.8392 </r>
       <r>    34.5486     0.4272     4.8937 </r>
       <r>    34.6763     0.0486     4.9000 </r>
       <r>    34.8041     0.0003     4.9000 </r>
       <r>    34.9318     0.0000     4.9000 </r>
       <r>    35.0595     0.0000     4.9000 </r>
       <r>    35.1873     0.0000     4.9000 </r>
       <r>    35.3150     0.0000     4.9000 </r>
       <r>    35.4427     0.0000     4.9000 </r>
       <r>    35.5705     0.0000     4.9000 </r>
       <r>    35.6982     0.0000     4.9000 </r>
       <r>    35.8259     0.0000     4.9000 </r>
       <r>    35.9537     0.0000     4.9000 </r>
       <r>    36.0814     0.0000     4.9000 </r>
       <r>    36.2091     0.0000     4.9000 </r>
       <r>    36.3369     0.0000     4.9000 </r>
       <r>    36.4646     0.0000     4.9000 </r>
       <r>    36.5924     0.0093     4.9012 </r>
       <r>    36.7201     0.2455     4.9326 </r>
       <r>    36.8478     0.4592     4.9912 </r>
       <r>    36.9756     0.0681     4.9999 </r>
       <r>    37.1033     0.0006     5.0000 </r>
       <r>    37.2310     0.0000     5.0000 </r>
       <r>    37.3588     0.0000     5.0000 </r>
       <r>    37.4865     0.0000     5.0000 </r>
       <r>    37.6142     0.0000     5.0000 </r>
       <r>    37.7420     0.0000     5.0000 </r>
       <r>    37.8697     0.0000     5.0000 </r>
       <r>    37.9974     0.0000     5.0000 </r>
       <r>    38.1252     0.0000     5.0000 </r>
       <r>    38.2529     0.0000     5.0000 </r>
       <r>    38.3807     0.0000     5.0000 </r>
       <r>    38.5084     0.0000     5.0000 </r>
       <r>    38.6361     0.0000     5.0000 </r>
       <r>    38.7639     0.0000     5.0000 </r>
       <r>    38.8916     0.0000     5.0000 </r>
       <r>    39.0193     0.0035     5.0004 </r>
       <r>    39.1471     0.1601     5.0209 </r>
       <r>    39.2748     0.4944     5.0840 </r>
       <r>    39.4025     0.1229     5.0997 </r>
       <r>    39.5303     0.0020     5.1000 </r>
       <r>    39.6580     0.0000     5.1000 </r>
       <r>    39.7857     0.0000     5.1000 </r>
       <r>    39.9135     0.0000     5.1000 </r>
       <r>    40.0412     0.0000     5.1000 </r>
       <r>    40.1689     0.0000     5.1000 </r>
       <r>    40.2967     0.0000     5.1000 </r>
       <r>    40.4244     0.0000     5.1000 </r>
       <r>    40.5522     0.0000     5.1000 </r>
       <r>    40.6799     0.0000     5.1000 </r>
       <r>    40.8076     0.0000     5.1000 </r>
       <r>    40.9354     0.0000     5.1000 </r>
       <r>    41.0631     0.0000     5.1000 </r>
       <r>    41.1908     0.0000     5.1000 </r>
       <r>    41.3186     0.0000     5.1000 </r>
       <r>    41.4463     0.0000     5.1000 </r>
       <r>    41.5740     0.0014     5.1002 </r>
       <r>    41.7018     0.1043     5.1135 </r>
       <r>    41.8295     0.4886     5.1759 </r>
       <r>    41.9572     0.1838     5.1994 </r>
       <r>    42.0850     0.0047     5.2000 </r>
       <r>    42.2127     0.0000     5.2000 </r>
       <r>    42.3404     0.0000     5.2000 </r>
       <r>    42.4682     0.0000     5.2000 </r>
       <r>    42.5959     0.0000     5.2000 </r>
       <r>    42.7237     0.0000     5.2000 </r>
       <r>    42.8514     0.0000     5.2000 </r>
       <r>    42.9791     0.0000     5.2000 </r>
       <r>    43.1069     0.0000     5.2000 </r>
       <r>    43.2346     0.0000     5.2000 </r>
       <r>    43.3623     0.0000     5.2000 </r>
       <r>    43.4901     0.0000     5.2000 </r>
       <r>    43.6178     0.0000     5.2000 </r>
       <r>    43.7455     0.0000     5.2000 </r>
       <r>    43.8733     0.0000     5.2000 </r>
       <r>    44.0010     0.0000     5.2000 </r>
       <r>    44.1287     0.0000     5.2000 </r>
       <r>    44.2565     0.0011     5.2001 </r>
       <r>    44.3842     0.0935     5.2121 </r>
       <r>    44.5120     0.4828     5.2738 </r>
       <r>    44.6397     0.1997     5.2993 </r>
       <r>    44.7674     0.0057     5.3000 </r>
       <r>    44.8952     0.0000     5.3000 </r>
       <r>    45.0229     0.0000     5.3000 </r>
       <r>    45.1506     0.0000     5.3000 </r>
       <r>    45.2784     0.0000     5.3000 </r>
       <r>    45.4061     0.0000     5.3000 </r>
       <r>    45.5338     0.0000     5.3000 </r>
       <r>    45.6616     0.0000     5.3000 </r>
       <r>    45.7893     0.0000     5.3000 </r>
       <r>    45.9170     0.0000     5.3000 </r>
       <r>    46.0448     0.0000     5.3000 </r>
       <r>    46.1725     0.0000     5.3000 </r>
       <r>    46.3002     0.0000     5.3000 </r>
       <r>    46.4280     0.0000     5.3000 </r>
       <r>    46.5557     0.0000     5.3000 </r>
       <r>    46.6835     0.0000     5.3000 </r>
       <r>    46.8112     0.0000     5.3000 </r>
       <r>    46.9389     0.0000     5.3000 </r>
       <r>    47.0667     0.0003     5.3000 </r>
       <r>    47.1944     0.0427     5.3055 </r>
       <r>    47.3221     0.4127     5.3582 </r>
       <r>    47.4499     0.3100     5.3978 </r>
       <r>    47.5776     0.0172     5.4000 </r>
       <r>    47.7053     0.0001     5.4000 </r>
       <r>    47.8331     0.0000     5.4000 </r>
       <r>    47.9608     0.0000     5.4000 </r>
       <r>    48.0885     0.0000     5.4000 </r>
       <r>    48.2163     0.0000     5.4000 </r>
       <r>    48.3440     0.0000     5.4000 </r>
       <r>    48.4718     0.0000     5.4000 </r>
       <r>    48.5995     0.0000     5.4000 </r>
       <r>    48.7272     0.0000     5.4000 </r>
       <r>    48.8550     0.0000     5.4000 </r>
       <r>    48.9827     0.0000     5.4000 </r>
       <r>    49.1104     0.0000     5.4000 </r>
       <r>    49.2382     0.0000     5.4000 </r>
       <r>    49.3659     0.0000     5.4000 </r>
       <r>    49.4936     0.0000     5.4000 </r>
       <r>    49.6214     0.0000     5.4000 </r>
       <r>    49.7491     0.0000     5.4000 </r>
       <r>    49.8768     0.0000     5.4000 </r>
       <r>    50.0046     0.0026     5.4003 </r>
       <r>    50.1323     0.1394     5.4181 </r>
       <r>    50.2600     0.4960     5.4815 </r>
       <r>    50.3878     0.1422     5.4997 </r>
       <r>    50.5155     0.0027     5.5000 </r>
       <r>    50.6433     0.0000     5.5000 </r>
       <r>    50.7710     0.0000     5.5000 </r>
       <r>    50.8987     0.0000     5.5000 </r>
       <r>    51.0265     0.0000     5.5000 </r>
       <r>    51.1542     0.0000     5.5000 </r>
       <r>    51.2819     0.0000     5.5000 </r>
       <r>    51.4097     0.0000     5.5000 </r>
       <r>    51.5374     0.0000     5.5000 </r>
       <r>    51.6651     0.0000     5.5000 </r>
       <r>    51.7929     0.0000     5.5000 </r>
       <r>    51.9206     0.0000     5.5000 </r>
       <r>    52.0483     0.0000     5.5000 </r>
       <r>    52.1761     0.0000     5.5000 </r>
       <r>    52.3038     0.0000     5.5000 </r>
       <r>    52.4316     0.0000     5.5000 </r>
       <r>    52.5593     0.0000     5.5000 </r>
       <r>    52.6870     0.0000     5.5000 </r>
       <r>    52.8148     0.0000     5.5000 </r>
       <r>    52.9425     0.0083     5.5011 </r>
       <r>    53.0702     0.2345     5.5310 </r>
       <r>    53.1980     0.4657     5.5905 </r>
       <r>    53.3257     0.0736     5.5999 </r>
       <r>    53.4534     0.0007     5.6000 </r>
       <r>    53.5812     0.0000     5.6000 </r>
       <r>    53.7089     0.0000     5.6000 </r>
       <r>    53.8366     0.0000     5.6000 </r>
       <r>    53.9644     0.0000     5.6000 </r>
       <r>    54.0921     0.0000     5.6000 </r>
       <r>    54.2198     0.0000     5.6000 </r>
       <r>    54.3476     0.0000     5.6000 </r>
       <r>    54.4753     0.0000     5.6000 </r>
       <r>    54.6031     0.0000     5.6000 </r>
       <r>    54.7308     0.0000     5.6000 </r>
       <r>    54.8585     0.0000     5.6000 </r>
       <r>    54.9863     0.0000     5.6000 </r>
       <r>    55.1140     0.0000     5.6000 </r>
       <r>    55.2417     0.0000     5.6000 </r>
       <r>    55.3695     0.0000     5.6000 </r>
       <r>    55.4972     0.0000     5.6000 </r>
       <r>    55.6249     0.0000     5.6000 </r>
       <r>    55.7527     0.0000     5.6000 </r>
       <r>    55.8804     0.0016     5.6002 </r>
       <r>    56.0081     0.1123     5.6146 </r>
       <r>    56.1359     0.4917     5.6774 </r>
       <r>    56.2636     0.1731     5.6995 </r>
       <r>    56.3913     0.0041     5.7000 </r>
       <r>    56.5191     0.0000     5.7000 </r>
       <r>    56.6468     0.0000     5.7000 </r>
       <r>    56.7746     0.0000     5.7000 </r>
       <r>    56.9023     0.0000     5.7000 </r>
       <r>    57.0300     0.0000     5.7000 </r>
       <r>    57.1578     0.0000     5.7000 </r>
       <r>    57.2855     0.0000     5.7000 </r>
       <r>    57.4132     0.0000     5.7000 </r>
       <r>    57.5410     0.0000     5.7000 </r>
       <r>    57.6687     0.0000     5.7000 </r>
       <r>    57.7964     0.0000     5.7000 </r>
       <r>    57.9242     0.0000     5.7000 </r>
       <r>    58.0519     0.0000     5.7000 </r>
       <r>    58.1796     0.0000     5.7000 </r>
       <r>    58.3074     0.0000     5.7000 </r>
       <r>    58.4351     0.0000     5.7000 </r>
       <r>    58.5629     0.0000     5.7000 </r>
       <r>    58.6906     0.0000     5.7000 </r>
       <r>    58.8183     0.0030     5.7004 </r>
       <r>    58.9461     0.1486     5.7194 </r>
       <r>    59.0738     0.4957     5.7827 </r>
       <r>    59.2015     0.1332     5.7997 </r>
       <r>    59.3293     0.0023     5.8000 </r>
       <r>    59.4570     0.0000     5.8000 </r>
       <r>    59.5847     0.0000     5.8000 </r>
       <r>    59.7125     0.0000     5.8000 </r>
       <r>    59.8402     0.0000     5.8000 </r>
       <r>    59.9679     0.0000     5.8000 </r>
       <r>    60.0957     0.0000     5.8000 </r>
       <r>    60.2234     0.0000     5.8000 </r>
       <r>    60.3511     0.0000     5.8000 </r>
       <r>    60.4789     0.0000     5.8000 </r>
       <r>    60.6066     0.0000     5.8000 </r>
       <r>    60.7344     0.0000     5.8000 </r>
       <r>    60.8621     0.0000     5.8000 </r>
       <r>    60.9898     0.0000     5.8000 </r>
       <r>    61.1176     0.0000     5.8000 </r>
       <r>    61.2453     0.0000     5.8000 </r>
       <r>    61.3730     0.0000     5.8000 </r>
       <r>    61.5008     0.0000     5.8000 </r>
       <r>    61.6285     0.0084     5.8011 </r>
       <r>    61.7562     0.2347     5.8311 </r>
       <r>    61.8840     0.4656     5.8905 </r>
       <r>    62.0117     0.0735     5.8999 </r>
       <r>    62.1394     0.0007     5.9000 </r>
       <r>    62.2672     0.0000     5.9000 </r>
       <r>    62.3949     0.0000     5.9000 </r>
       <r>    62.5227     0.0000     5.9000 </r>
       <r>    62.6504     0.0000     5.9000 </r>
       <r>    62.7781     0.0000     5.9000 </r>
       <r>    62.9059     0.0000     5.9000 </r>
       <r>    63.0336     0.0000     5.9000 </r>
       <r>    63.1613     0.0000     5.9000 </r>
       <r>    63.2891     0.0000     5.9000 </r>
       <r>    63.4168     0.0000     5.9000 </r>
       <r>    63.5445     0.0000     5.9000 </r>
       <r>    63.6723     0.0000     5.9000 </r>
       <r>    63.8000     0.0000     5.9000 </r>
       <r>    63.9277     0.0000     5.9000 </r>
       <r>    64.0555     0.0115     5.9015 </r>
       <r>    64.1832     0.2666     5.9355 </r>
       <r>    64.3109     0.4455     5.9924 </r>
       <r>    64.4387     0.0587     5.9999 </r>
       <r>    64.5664     0.0005     6.0000 </r>
       <r>    64.6942     0.0000     6.0000 </r>
       <r>    64.8219     0.0000     6.0000 </r>
       <r>    64.9496     0.0000     6.0000 </r>
       <r>    65.0774     0.0000     6.0000 </r>
       <r>    65.2051     0.0000     6.0000 </r>
       <r>    65.3328     0.0000     6.0000 </r>
       <r>    65.4606     0.0000     6.0000 </r>
       <r>    65.5883     0.0000     6.0000 </r>
       <r>    65.7160     0.0059     6.0008 </r>
       <r>    65.8438     0.2029     6.0267 </r>
       <r>    65.9715     0.4815     6.0882 </r>
       <r>    66.0992     0.0915     6.0999 </r>
       <r>    66.2270     0.0011     6.1000 </r>
       <r>    66.3547     0.0000     6.1000 </r>
       <r>    66.4825     0.0000     6.1000 </r>
       <r>    66.6102     0.0000     6.1000 </r>
       <r>    66.7379     0.0000     6.1000 </r>
       <r>    66.8657     0.0000     6.1000 </r>
       <r>    66.9934     0.0000     6.1000 </r>
       <r>    67.1211     0.0000     6.1000 </r>
       <r>    67.2489     0.0000     6.1000 </r>
       <r>    67.3766     0.0000     6.1000 </r>
       <r>    67.5043     0.0000     6.1000 </r>
       <r>    67.6321     0.0000     6.1000 </r>
       <r>    67.7598     0.0000     6.1000 </r>
       <r>    67.8875     0.0000     6.1000 </r>
       <r>    68.0153     0.0000     6.1000 </r>
       <r>    68.1430     0.0000     6.1000 </r>
       <r>    68.2707     0.0000     6.1000 </r>
       <r>    68.3985     0.0000     6.1000 </r>
       <r>    68.5262     0.0000     6.1000 </r>
       <r>    68.6540     0.0000     6.1000 </r>
       <r>    68.7817     0.0000     6.1000 </r>
       <r>    68.9094     0.0000     6.1000 </r>
       <r>    69.0372     0.0000     6.1000 </r>
       <r>    69.1649     0.0000     6.1000 </r>
       <r>    69.2926     0.0000     6.1000 </r>
       <r>    69.4204     0.0000     6.1000 </r>
       <r>    69.5481     0.0000     6.1000 </r>
       <r>    69.6758     0.0000     6.1000 </r>
       <r>    69.8036     0.0000     6.1000 </r>
       <r>    69.9313     0.0000     6.1000 </r>
       <r>    70.0590     0.0000     6.1000 </r>
       <r>    70.1868     0.0000     6.1000 </r>
       <r>    70.3145     0.0000     6.1000 </r>
       <r>    70.4422     0.0000     6.1000 </r>
       <r>    70.5700     0.0000     6.1000 </r>
       <r>    70.6977     0.0000     6.1000 </r>
       <r>    70.8255     0.0000     6.1000 </r>
       <r>    70.9532     0.0000     6.1000 </r>
       <r>    71.0809     0.0000     6.1000 </r>
       <r>    71.2087     0.0000     6.1000 </r>
       <r>    71.3364     0.0000     6.1000 </r>
       <r>    71.4641     0.0000     6.1000 </r>
       <r>    71.5919     0.0000     6.1000 </r>
       <r>    71.7196     0.0000     6.1000 </r>
       <r>    71.8473     0.0000     6.1000 </r>
       <r>    71.9751     0.0000     6.1000 </r>
       <r>    72.1028     0.0000     6.1000 </r>
       <r>    72.2305     0.0000     6.1000 </r>
       <r>    72.3583     0.0000     6.1000 </r>
       <r>    72.4860     0.0000     6.1000 </r>
       <r>    72.6138     0.0000     6.1000 </r>
       <r>    72.7415     0.0000     6.1000 </r>
       <r>    72.8692     0.0000     6.1000 </r>
       <r>    72.9970     0.0000     6.1000 </r>
       <r>    73.1247     0.0000     6.1000 </r>
       <r>    73.2524     0.0000     6.1000 </r>
       <r>    73.3802     0.0000     6.1000 </r>
       <r>    73.5079     0.0000     6.1000 </r>
       <r>    73.6356     0.0000     6.1000 </r>
       <r>    73.7634     0.0000     6.1000 </r>
       <r>    73.8911     0.0000     6.1000 </r>
       <r>    74.0188     0.0016     6.1002 </r>
       <r>    74.1466     0.1111     6.1144 </r>
       <r>    74.2743     0.5320     6.1824 </r>
       <r>    74.4020     0.5829     6.2568 </r>
       <r>    74.5298     0.3200     6.2977 </r>
       <r>    74.6575     0.0181     6.3000 </r>
       <r>    74.7853     0.0001     6.3000 </r>
       <r>    74.9130     0.0001     6.3000 </r>
       <r>    75.0407     0.0199     6.3025 </r>
       <r>    75.1685     0.3262     6.3442 </r>
       <r>    75.2962     0.3989     6.3952 </r>
       <r>    75.4239     0.0377     6.4000 </r>
       <r>    75.5517     0.0002     6.4000 </r>
       <r>    75.6794     0.0000     6.4000 </r>
       <r>    75.8071     0.0130     6.4017 </r>
       <r>    75.9349     0.2795     6.4374 </r>
       <r>    76.0626     0.4364     6.4931 </r>
       <r>    76.1903     0.0546     6.5001 </r>
       <r>    76.3181     0.0932     6.5120 </r>
       <r>    76.4458     0.4915     6.5748 </r>
       <r>    76.5736     0.4442     6.6315 </r>
       <r>    76.7013     0.4663     6.6911 </r>
       <r>    76.8290     0.0692     6.6999 </r>
       <r>    76.9568     0.0006     6.7000 </r>
       <r>    77.0845     0.0000     6.7000 </r>
       <r>    77.2122     0.0001     6.7000 </r>
       <r>    77.3400     0.0260     6.7033 </r>
       <r>    77.4677     0.3781     6.7516 </r>
       <r>    77.5954     0.7112     6.8425 </r>
       <r>    77.7232     0.6998     6.9319 </r>
       <r>    77.8509     1.3711     7.1070 </r>
       <r>    77.9786     0.6908     7.1952 </r>
       <r>    78.1064     0.0371     7.2000 </r>
       <r>    78.2341     0.0001     7.2000 </r>
       <r>    78.3618     0.0000     7.2000 </r>
       <r>    78.4896     0.0000     7.2000 </r>
       <r>    78.6173     0.0000     7.2000 </r>
       <r>    78.7451     0.0000     7.2000 </r>
       <r>    78.8728     0.0142     7.2018 </r>
       <r>    79.0005     0.2946     7.2395 </r>
       <r>    79.1283     0.6306     7.3200 </r>
       <r>    79.2560     0.5322     7.3880 </r>
       <r>    79.3837     0.1029     7.4011 </r>
       <r>    79.5115     0.2536     7.4335 </r>
       <r>    79.6392     0.4549     7.4916 </r>
       <r>    79.7669     0.0649     7.4999 </r>
       <r>    79.8947     0.0006     7.5000 </r>
       <r>    80.0224     0.0020     7.5003 </r>
       <r>    80.1501     0.1241     7.5161 </r>
       <r>    80.2779     0.4946     7.5793 </r>
       <r>    80.4056     0.1587     7.5996 </r>
       <r>    80.5334     0.0035     7.6000 </r>
       <r>    80.6611     0.0184     7.6024 </r>
       <r>    80.7888     0.3235     7.6437 </r>
       <r>    80.9166     0.6120     7.7219 </r>
       <r>    81.0443     0.7020     7.8115 </r>
       <r>    81.1720     0.5826     7.8859 </r>
       <r>    81.2998     0.1089     7.8999 </r>
       <r>    81.4275     0.0556     7.9070 </r>
       <r>    81.5552     0.4376     7.9629 </r>
       <r>    81.6830     0.2779     7.9984 </r>
       <r>    81.8107     0.0129     8.0000 </r>
       <r>    81.9384     0.0177     8.0023 </r>
       <r>    82.0662     0.3134     8.0423 </r>
       <r>    82.1939     0.4719     8.1026 </r>
       <r>    82.3216     0.4919     8.1654 </r>
       <r>    82.4494     0.2601     8.1986 </r>
       <r>    82.5771     0.0299     8.2025 </r>
       <r>    82.7049     0.3263     8.2441 </r>
       <r>    82.8326     0.5966     8.3203 </r>
       <r>    82.9603     0.8477     8.4286 </r>
       <r>    83.0881     0.5506     8.4989 </r>
       <r>    83.2158     0.4310     8.5540 </r>
       <r>    83.3435     0.4844     8.6159 </r>
       <r>    83.4713     0.5184     8.6821 </r>
       <r>    83.5990     0.1455     8.7007 </r>
       <r>    83.7267     0.3076     8.7400 </r>
       <r>    83.8545     0.9562     8.8621 </r>
       <r>    83.9822     0.3225     8.9033 </r>
       <r>    84.1099     0.4630     8.9625 </r>
       <r>    84.2377     0.8134     9.0664 </r>
       <r>    84.3654     0.2552     9.0990 </r>
       <r>    84.4931     0.0082     9.1000 </r>
       <r>    84.6209     0.0000     9.1000 </r>
       <r>    84.7486     0.0000     9.1000 </r>
       <r>    84.8764     0.0007     9.1001 </r>
       <r>    85.0041     0.0748     9.1096 </r>
       <r>    85.1318     0.6107     9.1876 </r>
       <r>    85.2596     0.7337     9.2814 </r>
       <r>    85.3873     0.1435     9.2997 </r>
       <r>    85.5150     0.0024     9.3000 </r>
       <r>    85.6428     0.0102     9.3013 </r>
       <r>    85.7705     0.2541     9.3338 </r>
       <r>    85.8982     0.4750     9.3944 </r>
       <r>    86.0260     0.3972     9.4452 </r>
       <r>    86.1537     0.3935     9.4954 </r>
       <r>    86.2814     0.0628     9.5035 </r>
       <r>    86.4092     0.3618     9.5497 </r>
       <r>    86.5369     0.3666     9.5965 </r>
       <r>    86.6647     0.1052     9.6099 </r>
       <r>    86.7924     0.4696     9.6699 </r>
       <r>    86.9201     0.2277     9.6990 </r>
       <r>    87.0479     0.0078     9.7000 </r>
       <r>    87.1756     0.0000     9.7000 </r>
       <r>    87.3033     0.0000     9.7000 </r>
       <r>    87.4311     0.0003     9.7000 </r>
       <r>    87.5588     0.0477     9.7061 </r>
       <r>    87.6865     0.4246     9.7604 </r>
       <r>    87.8143     0.2951     9.7981 </r>
       <r>    87.9420     0.0254     9.8013 </r>
       <r>    88.0697     0.2558     9.8340 </r>
       <r>    88.1975     0.4528     9.8918 </r>
       <r>    88.3252     0.0634     9.8999 </r>
       <r>    88.4529     0.0066     9.9008 </r>
       <r>    88.5807     0.2050     9.9270 </r>
       <r>    88.7084     0.4806     9.9883 </r>
       <r>    88.8362     0.0902     9.9999 </r>
       <r>    88.9639     0.0011    10.0000 </r>
       <r>    89.0916     0.0000    10.0000 </r>
       <r>    89.2194     0.0000    10.0000 </r>
       <r>    89.3471     0.0000    10.0000 </r>
       <r>    89.4748     0.0000    10.0000 </r>
       <r>    89.6026     0.0000    10.0000 </r>
       <r>    89.7303     0.0000    10.0000 </r>
       <r>    89.8580     0.0000    10.0000 </r>
       <r>    89.9858     0.0000    10.0000 </r>
       <r>    90.1135     0.0000    10.0000 </r>
       <r>    90.2412     0.0000    10.0000 </r>
       <r>    90.3690     0.0000    10.0000 </r>
       <r>    90.4967     0.0001    10.0000 </r>
       <r>    90.6245     0.0198    10.0025 </r>
       <r>    90.7522     0.3256    10.0441 </r>
       <r>    90.8799     0.3994    10.0951 </r>
       <r>    91.0077     0.0378    10.1000 </r>
       <r>    91.1354     0.0002    10.1000 </r>
       <r>    91.2631     0.0000    10.1000 </r>
       <r>    91.3909     0.0000    10.1000 </r>
       <r>    91.5186     0.0000    10.1000 </r>
       <r>    91.6463     0.0000    10.1000 </r>
       <r>    91.7741     0.0000    10.1000 </r>
       <r>    91.9018     0.0000    10.1000 </r>
       <r>    92.0295     0.0000    10.1000 </r>
       <r>    92.1573     0.0000    10.1000 </r>
       <r>    92.2850     0.0000    10.1000 </r>
       <r>    92.4127     0.0000    10.1000 </r>
       <r>    92.5405     0.0000    10.1000 </r>
       <r>    92.6682     0.0000    10.1000 </r>
       <r>    92.7960     0.0000    10.1000 </r>
       <r>    92.9237     0.0112    10.1014 </r>
       <r>    93.0514     0.2636    10.1351 </r>
       <r>    93.1792     0.4509    10.1927 </r>
       <r>    93.3069     0.2149    10.2201 </r>
       <r>    93.4346     0.4956    10.2834 </r>
       <r>    93.5624     0.1275    10.2997 </r>
       <r>    93.6901     0.0143    10.3016 </r>
       <r>    93.8178     0.2727    10.3364 </r>
       <r>    93.9456     0.4413    10.3928 </r>
       <r>    94.0733     0.0562    10.3999 </r>
       <r>    94.2010     0.0004    10.4000 </r>
       <r>    94.3288     0.0000    10.4000 </r>
       <r>    94.4565     0.0000    10.4000 </r>
       <r>    94.5843     0.0000    10.4000 </r>
       <r>    94.7120     0.0000    10.4000 </r>
       <r>    94.8397     0.0000    10.4000 </r>
       <r>    94.9675     0.0000    10.4000 </r>
       <r>    95.0952     0.0000    10.4000 </r>
       <r>    95.2229     0.0000    10.4000 </r>
       <r>    95.3507     0.0000    10.4000 </r>
       <r>    95.4784     0.0000    10.4000 </r>
       <r>    95.6061     0.0000    10.4000 </r>
       <r>    95.7339     0.0000    10.4000 </r>
       <r>    95.8616     0.0000    10.4000 </r>
       <r>    95.9893     0.0000    10.4000 </r>
       <r>    96.1171     0.0000    10.4000 </r>
       <r>    96.2448     0.0000    10.4000 </r>
       <r>    96.3725     0.0000    10.4000 </r>
       <r>    96.5003     0.0000    10.4000 </r>
       <r>    96.6280     0.0000    10.4000 </r>
       <r>    96.7558     0.0000    10.4000 </r>
       <r>    96.8835     0.0000    10.4000 </r>
       <r>    97.0112     0.0000    10.4000 </r>
       <r>    97.1390     0.0000    10.4000 </r>
       <r>    97.2667     0.0000    10.4000 </r>
       <r>    97.3944     0.0000    10.4000 </r>
       <r>    97.5222     0.0003    10.4000 </r>
       <r>    97.6499     0.0463    10.4059 </r>
       <r>    97.7776     0.4213    10.4598 </r>
       <r>    97.9054     0.2993    10.4980 </r>
       <r>    98.0331     0.0156    10.5000 </r>
       <r>    98.1608     0.0000    10.5000 </r>
       <r>    98.2886     0.0000    10.5000 </r>
       <r>    98.4163     0.0000    10.5000 </r>
       <r>    98.5441     0.0000    10.5000 </r>
       <r>    98.6718     0.0000    10.5000 </r>
       <r>    98.7995     0.0000    10.5000 </r>
       <r>    98.9273     0.0000    10.5000 </r>
       <r>    99.0550     0.0000    10.5000 </r>
       <r>    99.1827     0.0000    10.5000 </r>
       <r>    99.3105     0.0000    10.5000 </r>
       <r>    99.4382     0.0085    10.5011 </r>
       <r>    99.5659     0.2361    10.5312 </r>
       <r>    99.6937     0.4648    10.5906 </r>
       <r>    99.8214     0.0728    10.5999 </r>
       <r>    99.9491     0.0007    10.6000 </r>
       <r>   100.0769     0.0000    10.6000 </r>
       <r>   100.2046     0.0000    10.6000 </r>
       <r>   100.3323     0.0000    10.6000 </r>
       <r>   100.4601     0.0000    10.6000 </r>
       <r>   100.5878     0.0157    10.6020 </r>
       <r>   100.7156     0.3871    10.6515 </r>
       <r>   100.8433     0.9113    10.7679 </r>
       <r>   100.9710     0.2457    10.7993 </r>
       <r>   101.0988     0.0058    10.8000 </r>
       <r>   101.2265     0.0001    10.8000 </r>
       <r>   101.3542     0.0260    10.8033 </r>
       <r>   101.4820     0.3566    10.8489 </r>
       <r>   101.6097     0.3708    10.8962 </r>
       <r>   101.7374     0.0521    10.9029 </r>
       <r>   101.8652     0.3418    10.9466 </r>
       <r>   101.9929     0.3849    10.9957 </r>
       <r>   102.1206     0.0333    11.0000 </r>
       <r>   102.2484     0.0002    11.0000 </r>
       <r>   102.3761     0.0000    11.0000 </r>
       <r>   102.5038     0.0000    11.0000 </r>
       <r>   102.6316     0.0000    11.0000 </r>
       <r>   102.7593     0.0000    11.0000 </r>
       <r>   102.8871     0.0000    11.0000 </r>
       <r>   103.0148     0.0000    11.0000 </r>
       <r>   103.1425     0.0000    11.0000 </r>
       <r>   103.2703     0.0000    11.0000 </r>
       <r>   103.3980     0.0000    11.0000 </r>
       <r>   103.5257     0.0000    11.0000 </r>
       <r>   103.6535     0.0000    11.0000 </r>
       <r>   103.7812     0.0000    11.0000 </r>
       <r>   103.9089     0.0000    11.0000 </r>
       <r>   104.0367     0.0000    11.0000 </r>
       <r>   104.1644     0.0000    11.0000 </r>
       <r>   104.2921     0.0000    11.0000 </r>
       <r>   104.4199     0.0000    11.0000 </r>
       <r>   104.5476     0.0000    11.0000 </r>
       <r>   104.6754     0.0000    11.0000 </r>
       <r>   104.8031     0.0000    11.0000 </r>
       <r>   104.9308     0.0000    11.0000 </r>
       <r>   105.0586     0.0000    11.0000 </r>
       <r>   105.1863     0.0000    11.0000 </r>
       <r>   105.3140     0.0000    11.0000 </r>
       <r>   105.4418     0.0000    11.0000 </r>
       <r>   105.5695     0.0000    11.0000 </r>
       <r>   105.6972     0.0079    11.0010 </r>
       <r>   105.8250     0.2301    11.0304 </r>
       <r>   105.9527     0.5536    11.1011 </r>
       <r>   106.0804     0.6530    11.1845 </r>
       <r>   106.2082     0.7039    11.2744 </r>
       <r>   106.3359     0.1951    11.2994 </r>
       <r>   106.4636     0.0050    11.3000 </r>
       <r>   106.5914     0.0000    11.3000 </r>
       <r>   106.7191     0.0000    11.3000 </r>
       <r>   106.8469     0.0005    11.3001 </r>
       <r>   106.9746     0.0602    11.3078 </r>
       <r>   107.1023     0.4479    11.3650 </r>
       <r>   107.2301     0.2631    11.3986 </r>
       <r>   107.3578     0.0111    11.4000 </r>
       <r>   107.4855     0.0000    11.4000 </r>
       <r>   107.6133     0.0000    11.4000 </r>
       <r>   107.7410     0.0000    11.4000 </r>
       <r>   107.8687     0.0000    11.4000 </r>
       <r>   107.9965     0.0000    11.4000 </r>
       <r>   108.1242     0.0000    11.4000 </r>
       <r>   108.2519     0.0000    11.4000 </r>
       <r>   108.3797     0.0000    11.4000 </r>
       <r>   108.5074     0.0000    11.4000 </r>
       <r>   108.6352     0.0000    11.4000 </r>
       <r>   108.7629     0.0000    11.4000 </r>
       <r>   108.8906     0.0000    11.4000 </r>
       <r>   109.0184     0.0000    11.4000 </r>
       <r>   109.1461     0.0000    11.4000 </r>
       <r>   109.2738     0.0000    11.4000 </r>
       <r>   109.4016     0.0000    11.4000 </r>
       <r>   109.5293     0.0000    11.4000 </r>
       <r>   109.6570     0.0000    11.4000 </r>
       <r>   109.7848     0.0000    11.4000 </r>
       <r>   109.9125     0.0000    11.4000 </r>
       <r>   110.0402     0.0131    11.4017 </r>
       <r>   110.1680     0.2805    11.4375 </r>
       <r>   110.2957     0.4357    11.4932 </r>
       <r>   110.4234     0.0531    11.5000 </r>
       <r>   110.5512     0.0004    11.5000 </r>
       <r>   110.6789     0.0000    11.5000 </r>
       <r>   110.8067     0.0000    11.5000 </r>
       <r>   110.9344     0.0000    11.5000 </r>
       <r>   111.0621     0.0000    11.5000 </r>
       <r>   111.1899     0.0000    11.5000 </r>
       <r>   111.3176     0.0000    11.5000 </r>
       <r>   111.4453     0.0049    11.5006 </r>
       <r>   111.5731     0.1862    11.5244 </r>
       <r>   111.7008     0.4878    11.5867 </r>
       <r>   111.8285     0.1026    11.5998 </r>
       <r>   111.9563     0.0014    11.6000 </r>
       <r>   112.0840     0.0000    11.6000 </r>
       <r>   112.2117     0.0000    11.6000 </r>
       <r>   112.3395     0.0004    11.6001 </r>
       <r>   112.4672     0.0537    11.6069 </r>
       <r>   112.5950     0.4367    11.6627 </r>
       <r>   112.7227     0.2792    11.6983 </r>
       <r>   112.8504     0.0130    11.7000 </r>
       <r>   112.9782     0.0000    11.7000 </r>
       <r>   113.1059     0.0000    11.7000 </r>
       <r>   113.2336     0.0000    11.7000 </r>
       <r>   113.3614     0.0000    11.7000 </r>
       <r>   113.4891     0.0000    11.7000 </r>
       <r>   113.6168     0.0000    11.7000 </r>
       <r>   113.7446     0.0000    11.7000 </r>
       <r>   113.8723     0.0000    11.7000 </r>
       <r>   114.0000     0.0000    11.7000 </r>
       <r>   114.1278     0.0000    11.7000 </r>
       <r>   114.2555     0.0000    11.7000 </r>
       <r>   114.3832     0.0000    11.7000 </r>
       <r>   114.5110     0.0000    11.7000 </r>
       <r>   114.6387     0.0000    11.7000 </r>
       <r>   114.7665     0.0000    11.7000 </r>
       <r>   114.8942     0.0000    11.7000 </r>
       <r>   115.0219     0.0000    11.7000 </r>
       <r>   115.1497     0.0000    11.7000 </r>
       <r>   115.2774     0.0000    11.7000 </r>
       <r>   115.4051     0.0034    11.7004 </r>
       <r>   115.5329     0.1579    11.7206 </r>
       <r>   115.6606     0.4947    11.7838 </r>
       <r>   115.7883     0.1248    11.7997 </r>
       <r>   115.9161     0.0020    11.8000 </r>
       <r>   116.0438     0.0000    11.8000 </r>
       <r>   116.1715     0.0000    11.8000 </r>
       <r>   116.2993     0.0000    11.8000 </r>
       <r>   116.4270     0.0000    11.8000 </r>
       <r>   116.5547     0.0000    11.8000 </r>
       <r>   116.6825     0.0000    11.8000 </r>
       <r>   116.8102     0.0000    11.8000 </r>
       <r>   116.9380     0.0000    11.8000 </r>
       <r>   117.0657     0.0000    11.8000 </r>
       <r>   117.1934     0.0000    11.8000 </r>
       <r>   117.3212     0.0000    11.8000 </r>
       <r>   117.4489     0.0000    11.8000 </r>
       <r>   117.5766     0.0000    11.8000 </r>
       <r>   117.7044     0.0000    11.8000 </r>
       <r>   117.8321     0.0000    11.8000 </r>
       <r>   117.9598     0.0000    11.8000 </r>
       <r>   118.0876     0.0000    11.8000 </r>
       <r>   118.2153     0.0000    11.8000 </r>
       <r>   118.3430     0.0000    11.8000 </r>
       <r>   118.4708     0.0000    11.8000 </r>
       <r>   118.5985     0.0000    11.8000 </r>
       <r>   118.7263     0.0032    11.8004 </r>
       <r>   118.8540     0.1538    11.8201 </r>
       <r>   118.9817     0.4953    11.8833 </r>
       <r>   119.1095     0.1284    11.8997 </r>
       <r>   119.2372     0.0022    11.9000 </r>
       <r>   119.3649     0.0000    11.9000 </r>
       <r>   119.4927     0.0000    11.9000 </r>
       <r>   119.6204     0.0000    11.9000 </r>
       <r>   119.7481     0.0011    11.9001 </r>
       <r>   119.8759     0.0934    11.9121 </r>
       <r>   120.0036     0.4827    11.9737 </r>
       <r>   120.1313     0.1999    11.9993 </r>
       <r>   120.2591     0.0057    12.0000 </r>
       <r>   120.3868     0.0000    12.0000 </r>
       <r>   120.5145     0.0000    12.0000 </r>
       <r>   120.6423     0.0000    12.0000 </r>
       <r>   120.7700     0.0000    12.0000 </r>
       <r>   120.8978     0.0000    12.0000 </r>
       <r>   121.0255     0.0000    12.0000 </r>
       <r>   121.1532     0.0000    12.0000 </r>
       <r>   121.2810     0.0000    12.0000 </r>
       <r>   121.4087     0.0000    12.0000 </r>
       <r>   121.5364     0.0000    12.0000 </r>
       <r>   121.6642     0.0000    12.0000 </r>
       <r>   121.7919     0.0000    12.0000 </r>
       <r>   121.9196     0.0000    12.0000 </r>
       <r>   122.0474     0.0000    12.0000 </r>
       <r>   122.1751     0.0000    12.0000 </r>
       <r>   122.3028     0.0000    12.0000 </r>
       <r>   122.4306     0.0000    12.0000 </r>
       <r>   122.5583     0.0000    12.0000 </r>
       <r>   122.6861     0.0000    12.0000 </r>
       <r>   122.8138     0.0000    12.0000 </r>
       <r>   122.9415     0.0000    12.0000 </r>
       <r>   123.0693     0.0000    12.0000 </r>
       <r>   123.1970     0.0000    12.0000 </r>
       <r>   123.3247     0.0000    12.0000 </r>
       <r>   123.4525     0.0000    12.0000 </r>
       <r>   123.5802     0.0000    12.0000 </r>
       <r>   123.7079     0.0000    12.0000 </r>
       <r>   123.8357     0.0000    12.0000 </r>
       <r>   123.9634     0.0000    12.0000 </r>
       <r>   124.0911     0.0000    12.0000 </r>
       <r>   124.2189     0.0000    12.0000 </r>
       <r>   124.3466     0.0000    12.0000 </r>
       <r>   124.4743     0.0000    12.0000 </r>
       <r>   124.6021     0.0000    12.0000 </r>
       <r>   124.7298     0.0000    12.0000 </r>
       <r>   124.8576     0.0000    12.0000 </r>
       <r>   124.9853     0.0000    12.0000 </r>
       <r>   125.1130     0.0000    12.0000 </r>
       <r>   125.2408     0.0000    12.0000 </r>
       <r>   125.3685     0.0000    12.0000 </r>
       <r>   125.4962     0.0000    12.0000 </r>
       <r>   125.6240     0.0000    12.0000 </r>
       <r>   125.7517     0.0000    12.0000 </r>
       <r>   125.8794     0.0000    12.0000 </r>
       <r>   126.0072     0.0000    12.0000 </r>
       <r>   126.1349     0.0000    12.0000 </r>
       <r>   126.2626     0.0000    12.0000 </r>
       <r>   126.3904     0.0000    12.0000 </r>
       <r>   126.5181     0.0000    12.0000 </r>
       <r>   126.6459     0.0000    12.0000 </r>
       <r>   126.7736     0.0000    12.0000 </r>
       <r>   126.9013     0.0000    12.0000 </r>
       <r>   127.0291     0.0000    12.0000 </r>
       <r>   127.1568     0.0000    12.0000 </r>
       <r>   127.2845     0.0000    12.0000 </r>
       <r>   127.4123     0.0000    12.0000 </r>
       <r>   127.5400     0.0000    12.0000 </r>
       <r>   127.6677     0.0000    12.0000 </r>
       <r>   127.7955     0.0063    12.0008 </r>
       <r>   127.9232     0.2080    12.0274 </r>
[...]
     <dimension dim="3">spin</dimension>
     <field>eigene</field>
     <field>occ</field>
     <set>
      <set comment="spin 1">
       <set comment="kpoint 1">
        <r>    0.4316    1.0000 </r>
        <r>    9.4165    0.0000 </r>
        <r>   77.6032    0.0000 </r>
        <r>   77.4697    0.0000 </r>
        <r>   80.8014    0.0000 </r>
        <r>   82.2936    0.0000 </r>
        <r>  150.1763    0.0000 </r>
        <r>  154.6646    0.0000 </r>
       </set>
       <set comment="kpoint 2">
        <r>    0.4787    1.0000 </r>
        <r>    9.4668    0.0000 </r>
        <r>   65.8878    0.0000 </r>
        <r>   76.4012    0.0000 </r>
        <r>   77.7822    0.0000 </r>
        <r>  143.7984    0.0000 </r>
        <r>  152.6479    0.0000 </r>
        <r>  154.9335    0.0000 </r>
       </set>
       <set comment="kpoint 3">
        <r>    0.6272    1.0000 </r>
        <r>    9.6181    0.0000 </r>
        <r>   64.2095    0.0000 </r>
        <r>   75.1788    0.0000 </r>
        <r>   82.8849    0.0000 </r>
        <r>  145.3202    0.0000 </r>
        <r>  152.2077    0.0000 </r>
        <r>  161.4400    0.0000 </r>
       </set>
       <set comment="kpoint 4">
        <r>    0.8618    1.0000 </r>
        <r>    9.8698    0.0000 </r>
        <r>   61.7912    0.0000 </r>
        <r>   74.3890    0.0000 </r>
        <r>   93.3659    0.0000 </r>
        <r>  137.6998    0.0000 </r>
        <r>  151.7166    0.0000 </r>
        <r>  155.7401    0.0000 </r>
       </set>
       <set comment="kpoint 5">
        <r>    1.2066    1.0000 </r>
        <r>   10.2262    0.0000 </r>
        <r>   59.0072    0.0000 </r>
        <r>   75.9576    0.0000 </r>
        <r>   82.0800    0.0000 </r>
        <r>  146.5011    0.0000 </r>
        <r>  153.1731    0.0000 </r>
        <r>  167.3493    0.0000 </r>
       </set>
       <set comment="kpoint 6">
        <r>    1.6265    1.0000 </r>
        <r>   10.6791    0.0000 </r>
        <r>   56.0828    0.0000 </r>
        <r>   74.2218    0.0000 </r>
        <r>   80.9611    0.0000 </r>
        <r>   83.2093    0.0000 </r>
        <r>  132.6632    0.0000 </r>
        <r>  150.1036    0.0000 </r>
       </set>
       <set comment="kpoint 7">
        <r>    2.1378    1.0000 </r>
        <r>   11.2324    0.0000 </r>
        <r>   53.1052    0.0000 </r>
        <r>   76.6061    0.0000 </r>
        <r>   81.0954    0.0000 </r>
        <r>  100.7974    0.0000 </r>
        <r>  138.7791    0.0000 </r>
        <r>  151.2540    0.0000 </r>
       </set>
       <set comment="kpoint 8">
        <r>    2.7389    1.0000 </r>
        <r>   11.8861    0.0000 </r>
        <r>   50.1967    0.0000 </r>
        <r>   79.5415    0.0000 </r>
        <r>   82.9729    0.0000 </r>
        <r>   85.1936    0.0000 </r>
        <r>  110.1905    0.0000 </r>
        <r>  170.1587    0.0000 </r>
       </set>
       <set comment="kpoint 9">
        <r>    3.4274    1.0000 </r>
        <r>   12.6400    0.0000 </r>
        <r>   47.3075    0.0000 </r>
        <r>   77.8031    0.0000 </r>
        <r>   83.8113    0.0000 </r>
        <r>  106.0402    0.0000 </r>
        <r>  155.4694    0.0000 </r>
        <r>  185.7465    0.0000 </r>
       </set>
       <set comment="kpoint 10">
        <r>    4.1891    1.0000 </r>
        <r>   13.4936    0.0000 </r>
        <r>   44.4670    0.0000 </r>
        <r>   77.8535    0.0000 </r>
        <r>   82.7163    0.0000 </r>
        <r>   86.4098    0.0000 </r>
        <r>  119.9587    0.0000 </r>
        <r>  191.5952    0.0000 </r>
       </set>
       <set comment="kpoint 11">
        <r>    5.0409    0.0000 </r>
        <r>   14.4471    0.0000 </r>
        <r>   41.7798    0.0000 </r>
        <r>   79.0208    0.0000 </r>
        <r>   84.1050    0.0000 </r>
        <r>   86.7555    0.0000 </r>
        <r>  158.6191    0.0000 </r>
        <r>  194.1869    0.0000 </r>
       </set>
       <set comment="kpoint 12">
        <r>    5.9664    0.0000 </r>
        <r>   15.4997    0.0000 </r>
        <r>   39.2043    0.0000 </r>
        <r>   79.1728    0.0000 </r>
        <r>   88.0989    0.0000 </r>
        <r>  118.9134    0.0000 </r>
        <r>  181.7607    0.0000 </r>
        <r>  214.0882    0.0000 </r>
       </set>
       <set comment="kpoint 13">
        <r>    6.9565    0.0000 </r>
        <r>   16.6505    0.0000 </r>
        <r>   36.7521    0.0000 </r>
        <r>   80.2201    0.0000 </r>
        <r>   87.6679    0.0000 </r>
        <r>  112.5721    0.0000 </r>
        <r>  115.5909    0.0000 </r>
        <r>  186.5838    0.0000 </r>
       </set>
       <set comment="kpoint 14">
        <r>    7.9974    0.0000 </r>
        <r>   17.8981    0.0000 </r>
        <r>   34.4401    0.0000 </r>
        <r>   81.5320    0.0000 </r>
        <r>   90.7626    0.0000 </r>
        <r>  111.6221    0.0000 </r>
        <r>  127.9658    0.0000 </r>
        <r>  184.3503    0.0000 </r>
       </set>
       <set comment="kpoint 15">
        <r>    9.0682    0.0000 </r>
        <r>   19.2402    0.0000 </r>
        <r>   32.2917    0.0000 </r>
        <r>   83.7672    0.0000 </r>
        <r>   88.6241    0.0000 </r>
        <r>  105.8615    0.0000 </r>
        <r>  140.1574    0.0000 </r>
        <r>  170.0539    0.0000 </r>
       </set>
       <set comment="kpoint 16">
        <r>   10.1352    0.0000 </r>
        <r>   20.6717    0.0000 </r>
        <r>   30.3415    0.0000 </r>
        <r>   83.4062    0.0000 </r>
        <r>   93.8424    0.0000 </r>
        <r>  107.0751    0.0000 </r>
        <r>  157.1619    0.0000 </r>
        <r>  221.6988    0.0000 </r>
       </set>
       <set comment="kpoint 17">
        <r>   11.1448    0.0000 </r>
        <r>   22.1819    0.0000 </r>
        <r>   28.6443    0.0000 </r>
        <r>   34.1950    0.0000 </r>
        <r>   84.2018    0.0000 </r>
        <r>  106.1598    0.0000 </r>
        <r>  153.9652    0.0000 </r>
        <r>  160.4271    0.0000 </r>
       </set>
       <set comment="kpoint 18">
        <r>   12.0131    0.0000 </r>
        <r>   23.7405    0.0000 </r>
        <r>   27.2847    0.0000 </r>
        <r>   85.0977    0.0000 </r>
        <r>   93.0785    0.0000 </r>
        <r>   97.7601    0.0000 </r>
        <r>  101.4840    0.0000 </r>
        <r>  232.6779    0.0000 </r>
       </set>
       <set comment="kpoint 19">
        <r>   12.6426    0.0000 </r>
        <r>   25.2334    0.0000 </r>
        <r>   26.3812    0.0000 </r>
        <r>   30.3354    0.0000 </r>
        <r>   85.8002    0.0000 </r>
        <r>  100.7351    0.0000 </r>
        <r>  163.3021    0.0000 </r>
        <r>  170.9794    0.0000 </r>
       </set>
       <set comment="kpoint 20">
        <r>   12.8808    0.0000 </r>
        <r>   26.0634    0.0000 </r>
        <r>   29.4096    0.0000 </r>
        <r>   86.0344    0.0000 </r>
        <r>   99.6005    0.0000 </r>
        <r>  101.8713    0.0000 </r>
        <r>  166.9087    0.0000 </r>
        <r>  170.0479    0.0000 </r>
       </set>
      </set>
     </set>
    </array>
   </eigenvalues>
   <array>
    <dimension dim="1">ion</dimension>
    <dimension dim="2">band</dimension>
    <dimension dim="3">kpoint</dimension>
    <dimension dim="4">spin</dimension>
    <field>  s</field>
    <set>
     <set comment="spin1">
      <set comment="kpoint 1">
       <set comment="band 1">
        <r>  0.5687 </r>
       </set>
       <set comment="band 2">
        <r>  0.0000 </r>
       </set>
       <set comment="band 3">
        <r>  0.0908 </r>
       </set>
       <set comment="band 4">
        <r>  0.0013 </r>
       </set>
       <set comment="band 5">
        <r>  0.0000 </r>
       </set>
       <set comment="band 6">
        <r>  0.0000 </r>
       </set>
       <set comment="band 7">
        <r>  0.0675 </r>
       </set>
       <set comment="band 8">
        <r>  0.0040 </r>
       </set>
      </set>
      <set comment="kpoint 2">
       <set comment="band 1">
        <r>  0.5687 </r>
       </set>
       <set comment="band 2">
        <r>  0.0000 </r>
       </set>
       <set comment="band 3">
        <r>  0.3984 </r>
       </set>
       <set comment="band 4">
        <r>  0.0176 </r>
       </set>
       <set comment="band 5">
        <r>  0.0004 </r>
       </set>
       <set comment="band 6">
        <r>  0.2270 </r>
       </set>
       <set comment="band 7">
        <r>  0.0069 </r>
       </set>
       <set comment="band 8">
        <r>  0.0022 </r>
       </set>
      </set>
      <set comment="kpoint 3">
       <set comment="band 1">
        <r>  0.5690 </r>
       </set>
       <set comment="band 2">
        <r>  0.0000 </r>
       </set>
       <set comment="band 3">
        <r>  0.3463 </r>
       </set>
       <set comment="band 4">
        <r>  0.0325 </r>
       </set>
       <set comment="band 5">
        <r>  0.0010 </r>
       </set>
       <set comment="band 6">
        <r>  0.0913 </r>
       </set>
       <set comment="band 7">
        <r>  0.0148 </r>
       </set>
       <set comment="band 8">
        <r>  0.0017 </r>
       </set>
      </set>
      <set comment="kpoint 4">
       <set comment="band 1">
        <r>  0.5689 </r>
       </set>
       <set comment="band 2">
        <r>  0.0000 </r>
       </set>
       <set comment="band 3">
        <r>  0.2905 </r>
       </set>
       <set comment="band 4">
        <r>  0.0948 </r>
       </set>
       <set comment="band 5">
        <r>  0.0000 </r>
       </set>
       <set comment="band 6">
        <r>  0.1560 </r>
       </set>
       <set comment="band 7">
        <r>  0.0171 </r>
       </set>
       <set comment="band 8">
        <r>  0.0028 </r>
       </set>
      </set>
      <set comment="kpoint 5">
       <set comment="band 1">
        <r>  0.5697 </r>
       </set>
       <set comment="band 2">
        <r>  0.0000 </r>
       </set>
       <set comment="band 3">
        <r>  0.2509 </r>
       </set>
       <set comment="band 4">
        <r>  0.0776 </r>
       </set>
       <set comment="band 5">
        <r>  0.0017 </r>
       </set>
       <set comment="band 6">
        <r>  0.0432 </r>
       </set>
       <set comment="band 7">
        <r>  0.0284 </r>
       </set>
       <set comment="band 8">
        <r>  0.0232 </r>
       </set>
      </set>
      <set comment="kpoint 6">
       <set comment="band 1">
        <r>  0.5699 </r>
       </set>
       <set comment="band 2">
        <r>  0.0000 </r>
       </set>
       <set comment="band 3">
        <r>  0.2254 </r>
       </set>
       <set comment="band 4">
        <r>  0.1554 </r>
       </set>
       <set comment="band 5">
        <r>  0.0002 </r>
       </set>
       <set comment="band 6">
        <r>  0.0002 </r>
       </set>
       <set comment="band 7">
        <r>  0.0319 </r>
       </set>
       <set comment="band 8">
        <r>  0.0076 </r>
       </set>
      </set>
      <set comment="kpoint 7">
       <set comment="band 1">
        <r>  0.5703 </r>
       </set>
       <set comment="band 2">
        <r>  0.0000 </r>
       </set>
       <set comment="band 3">
        <r>  0.2086 </r>
       </set>
       <set comment="band 4">
        <r>  0.1331 </r>
       </set>
       <set comment="band 5">
        <r>  0.0071 </r>
       </set>
       <set comment="band 6">
        <r>  0.0645 </r>
       </set>
       <set comment="band 7">
        <r>  0.0129 </r>
       </set>
       <set comment="band 8">
        <r>  0.0006 </r>
       </set>
      </set>
      <set comment="kpoint 8">
       <set comment="band 1">
        <r>  0.5711 </r>
       </set>
       <set comment="band 2">
        <r>  0.0000 </r>
       </set>
       <set comment="band 3">
        <r>  0.1956 </r>
       </set>
       <set comment="band 4">
        <r>  0.0165 </r>
       </set>
       <set comment="band 5">
        <r>  0.0305 </r>
       </set>
       <set comment="band 6">
        <r>  0.0001 </r>
       </set>
       <set comment="band 7">
        <r>  0.0096 </r>
       </set>
       <set comment="band 8">
        <r>  0.0393 </r>
       </set>
      </set>
      <set comment="kpoint 9">
       <set comment="band 1">
        <r>  0.5727 </r>
       </set>
       <set comment="band 2">
        <r>  0.0000 </r>
       </set>
       <set comment="band 3">
        <r>  0.1881 </r>
       </set>
       <set comment="band 4">
        <r>  0.1565 </r>
       </set>
       <set comment="band 5">
        <r>  0.0012 </r>
       </set>
       <set comment="band 6">
        <r>  0.0923 </r>
       </set>
       <set comment="band 7">
        <r>  0.0151 </r>
       </set>
       <set comment="band 8">
        <r>  0.0854 </r>
       </set>
      </set>
      <set comment="kpoint 10">
       <set comment="band 1">
        <r>  0.5748 </r>
       </set>
       <set comment="band 2">
        <r>  0.0000 </r>
       </set>
       <set comment="band 3">
        <r>  0.1805 </r>
       </set>
       <set comment="band 4">
        <r>  0.1780 </r>
       </set>
       <set comment="band 5">
        <r>  0.0019 </r>
       </set>
       <set comment="band 6">
        <r>  0.0192 </r>
       </set>
       <set comment="band 7">
        <r>  0.0184 </r>
       </set>
       <set comment="band 8">
        <r>  0.0071 </r>
       </set>
      </set>
      <set comment="kpoint 11">
       <set comment="band 1">
        <r>  0.5786 </r>
       </set>
       <set comment="band 2">
        <r>  0.0000 </r>
       </set>
       <set comment="band 3">
        <r>  0.1735 </r>
       </set>
       <set comment="band 4">
        <r>  0.1556 </r>
       </set>
       <set comment="band 5">
        <r>  0.0234 </r>
       </set>
       <set comment="band 6">
        <r>  0.0026 </r>
       </set>
       <set comment="band 7">
        <r>  0.0234 </r>
       </set>
       <set comment="band 8">
        <r>  0.0470 </r>
       </set>
      </set>
      <set comment="kpoint 12">
       <set comment="band 1">
        <r>  0.5843 </r>
       </set>
       <set comment="band 2">
        <r>  0.0000 </r>
       </set>
       <set comment="band 3">
        <r>  0.1648 </r>
       </set>
       <set comment="band 4">
        <r>  0.2004 </r>
       </set>
       <set comment="band 5">
        <r>  0.0001 </r>
       </set>
       <set comment="band 6">
        <r>  0.0140 </r>
       </set>
       <set comment="band 7">
        <r>  0.0969 </r>
       </set>
       <set comment="band 8">
        <r>  0.0132 </r>
       </set>
      </set>
      <set comment="kpoint 13">
       <set comment="band 1">
        <r>  0.5926 </r>
       </set>
       <set comment="band 2">
        <r>  0.0000 </r>
       </set>
       <set comment="band 3">
        <r>  0.1544 </r>
       </set>
       <set comment="band 4">
        <r>  0.2043 </r>
       </set>
       <set comment="band 5">
        <r>  0.0009 </r>
       </set>
       <set comment="band 6">
        <r>  0.0369 </r>
       </set>
       <set comment="band 7">
        <r>  0.0353 </r>
       </set>
       <set comment="band 8">
        <r>  0.0311 </r>
       </set>
      </set>
      <set comment="kpoint 14">
       <set comment="band 1">
        <r>  0.6042 </r>
       </set>
       <set comment="band 2">
        <r>  0.0000 </r>
       </set>
       <set comment="band 3">
        <r>  0.1412 </r>
       </set>
       <set comment="band 4">
        <r>  0.2140 </r>
       </set>
       <set comment="band 5">
        <r>  0.0012 </r>
       </set>
       <set comment="band 6">
        <r>  0.0025 </r>
       </set>
       <set comment="band 7">
        <r>  0.0282 </r>
       </set>
       <set comment="band 8">
        <r>  0.0347 </r>
       </set>
      </set>
      <set comment="kpoint 15">
       <set comment="band 1">
        <r>  0.6203 </r>
       </set>
       <set comment="band 2">
        <r>  0.0000 </r>
       </set>
       <set comment="band 3">
        <r>  0.1240 </r>
       </set>
       <set comment="band 4">
        <r>  0.1959 </r>
       </set>
       <set comment="band 5">
        <r>  0.0339 </r>
       </set>
       <set comment="band 6">
        <r>  0.0401 </r>
       </set>
       <set comment="band 7">
        <r>  0.0318 </r>
       </set>
       <set comment="band 8">
        <r>  0.0412 </r>
       </set>
      </set>
      <set comment="kpoint 16">
       <set comment="band 1">
        <r>  0.6420 </r>
       </set>
       <set comment="band 2">
        <r>  0.0000 </r>
       </set>
       <set comment="band 3">
        <r>  0.1015 </r>
       </set>
       <set comment="band 4">
        <r>  0.2337 </r>
       </set>
       <set comment="band 5">
        <r>  0.0027 </r>
       </set>
       <set comment="band 6">
        <r>  0.0107 </r>
       </set>
       <set comment="band 7">
        <r>  0.0253 </r>
       </set>
       <set comment="band 8">
        <r>  0.0078 </r>
       </set>
      </set>
      <set comment="kpoint 17">
       <set comment="band 1">
        <r>  0.6698 </r>
       </set>
       <set comment="band 2">
        <r>  0.0000 </r>
       </set>
       <set comment="band 3">
        <r>  0.0732 </r>
       </set>
       <set comment="band 4">
        <r>  0.0000 </r>
       </set>
       <set comment="band 5">
        <r>  0.2554 </r>
       </set>
       <set comment="band 6">
        <r>  0.0010 </r>
       </set>
       <set comment="band 7">
        <r>  0.0496 </r>
       </set>
       <set comment="band 8">
        <r>  0.0730 </r>
       </set>
      </set>
      <set comment="kpoint 18">
       <set comment="band 1">
        <r>  0.7017 </r>
       </set>
       <set comment="band 2">
        <r>  0.0000 </r>
       </set>
       <set comment="band 3">
        <r>  0.0409 </r>
       </set>
       <set comment="band 4">
        <r>  0.2693 </r>
       </set>
       <set comment="band 5">
        <r>  0.0000 </r>
       </set>
       <set comment="band 6">
        <r>  0.0044 </r>
       </set>
       <set comment="band 7">
        <r>  0.0012 </r>
       </set>
       <set comment="band 8">
        <r>  0.1926 </r>
       </set>
      </set>
      <set comment="kpoint 19">
       <set comment="band 1">
        <r>  0.7309 </r>
       </set>
       <set comment="band 2">
        <r>  0.0000 </r>
       </set>
       <set comment="band 3">
        <r>  0.0122 </r>
       </set>
       <set comment="band 4">
        <r>  0.0000 </r>
       </set>
       <set comment="band 5">
        <r>  0.2801 </r>
       </set>
       <set comment="band 6">
        <r>  0.0010 </r>
       </set>
       <set comment="band 7">
        <r>  0.1892 </r>
       </set>
       <set comment="band 8">
        <r>  0.0001 </r>
       </set>
      </set>
      <set comment="kpoint 20">
       <set comment="band 1">
        <r>  0.7435 </r>
       </set>
       <set comment="band 2">
        <r>  0.0000 </r>
       </set>
       <set comment="band 3">
        <r>  0.0000 </r>
       </set>
       <set comment="band 4">
        <r>  0.2846 </r>
       </set>
       <set comment="band 5">
        <r>  0.0000 </r>
       </set>
       <set comment="band 6">
        <r>  0.0000 </r>
       </set>
       <set comment="band 7">
        <r>  0.1277 </r>
       </set>
       <set comment="band 8">
        <r>  0.0278 </r>
       </set>
      </set>
     </set>
    </set>
   </array>
  </projected>
 </calculation>
 <structure name="finalpos" >
  <crystal>
   <varray name="basis" >
    <v>       1.43536055       0.00000000       0.00000000 </v>
    <v>       0.00000000       1.43536055       0.00000000 </v>
    <v>       0.00000000       0.00000000       1.43536055 </v>
   </varray>
   <i name="volume">      2.95721580 </i>
   <varray name="rec_basis" >
    <v>       0.69668907       0.00000000       0.00000000 </v>
    <v>       0.00000000       0.69668907       0.00000000 </v>
    <v>       0.00000000       0.00000000       0.69668907 </v>
   </varray>
  </crystal>
  <varray name="positions" >
   <v>       0.00000000       0.00000000       0.00000000 </v>
  </varray>
 </structure>
</modeling>
