    1    1    1    1
  0.2957216E+01  0.1435361E-09  0.1435361E-09  0.1435361E-09  0.5000000E-15
  1.000000000000000E-004
  CAR 
 jump2                                   
    1   20    8
 
  0.0000000E+00  0.0000000E+00  0.0000000E+00  0.5000000E-01
   1      -13.603238
   2       50.144605
   3       61.606642
   4       61.606642
   5       63.588165
   6      123.203808
   7      134.256770
   8      136.032426
 
  0.2631579E-01  0.0000000E+00  0.0000000E+00  0.5000000E-01
   1      -13.554418
   2       49.763303
   3       59.685535
   4       61.656801
   5       65.993879
   6      124.296932
   7      132.506159
   8      134.111522
 
  0.5263158E-01  0.0000000E+00  0.0000000E+00  0.5000000E-01
   1      -13.408006
   2       48.539372
   3       57.804791
   4       61.807260
   5      121.188566
   6      133.104725
   7      137.049079
   8      206.473831
 
  0.7894737E-01  0.0000000E+00  0.0000000E+00  0.5000000E-01
   1      -13.164157
   2       46.482077
   3       56.786490
   4       62.057954
   5       73.204251
   6      119.942954
   7      133.090821
   8      203.878118
 
  0.1052632E+00  0.0000000E+00  0.0000000E+00  0.5000000E-01
   1      -12.823140
   2       43.872808
   3       56.428460
   4       62.408803
   5       74.810220
   6       77.873955
   7      118.911434
   8      138.173879
 
  0.1315789E+00  0.0000000E+00  0.0000000E+00  0.5000000E-01
   1      -12.382840
   2       41.010436
   3       56.479326
   4       62.859670
   5       87.857776
   6      112.201982
   7      129.728527
   8      150.429609
 
  0.1578947E+00  0.0000000E+00  0.0000000E+00  0.5000000E-01
   1      -11.855405
   2       38.012604
   3       56.762470
   4       63.408964
   5       85.931581
   6      114.007752
   7      131.051347
   8      141.900006
 
  0.1842105E+00  0.0000000E+00  0.0000000E+00  0.5000000E-01
   1      -11.226753
   2       35.069457
   3       57.219478
   4       64.058847
   5       99.886556
   6      132.658732
   7      156.763960
   8      168.986847
 
  0.2105263E+00  0.0000000E+00  0.0000000E+00  0.5000000E-01
   1      -10.503970
   2       32.172404
   3       57.806290
   4       64.808201
   5      106.194714
   6      126.146466
   7      168.826883
   8      177.269495
 
  0.2368421E+00  0.0000000E+00  0.0000000E+00  0.5000000E-01
   1       -9.688684
   2       29.345501
   3       58.503788
   4       65.658931
   5      102.763641
   6      103.591848
   7      123.381974
   8      166.219414
 
  0.2631579E+00  0.0000000E+00  0.0000000E+00  0.5000000E-01
   1       -8.783227
   2       26.603874
   3       59.297232
   4       66.607711
   5      101.290932
   6      114.420692
   7      133.362777
   8      171.516514
 
  0.2894737E+00  0.0000000E+00  0.0000000E+00  0.5000000E-01
   1       -7.791015
   2       23.958672
   3       60.178044
   4       68.472437
   5       95.267070
   6      104.434935
   7      162.197384
   8      179.840380
 
  0.3157895E+00  0.0000000E+00  0.0000000E+00  0.5000000E-01
   1       -6.717231
   2       21.419971
   3       61.127065
   4       69.610960
   5       98.987123
   6      108.547349
   7      148.971303
   8      145.282825
 
  0.3421053E+00  0.0000000E+00  0.0000000E+00  0.5000000E-01
   1       -5.577633
   2       18.989810
   3       62.076545
   4       70.746248
   5       92.488766
   6       93.639949
   7      142.168926
   8      176.740365
 
  0.3684211E+00  0.0000000E+00  0.0000000E+00  0.5000000E-01
   1       -4.371355
   2       16.703411
   3       63.090193
   4       71.990724
   5       90.447529
   6       98.951941
   7      139.165189
   8      153.156728
 
  0.3947368E+00  0.0000000E+00  0.0000000E+00  0.5000000E-01
   1       -3.129352
   2       14.576209
   3       64.068371
   4       73.311080
   5       90.135328
   6      137.953304
   7      146.913002
   8      145.224745
 
  0.4210526E+00  0.0000000E+00  0.0000000E+00  0.5000000E-01
   1       -1.896408
   2       12.654028
   3       65.003836
   4       74.740102
   5       87.744914
   6      117.737250
   7      145.717005
   8      156.910972
 
  0.4473684E+00  0.0000000E+00  0.0000000E+00  0.5000000E-01
   1       -0.771010
   2       11.013882
   3       65.761113
   4       75.912269
   5       80.708452
   6      150.141205
   7      151.685360
   8      218.277659
 
  0.4736842E+00  0.0000000E+00  0.0000000E+00  0.5000000E-01
   1        0.093098
   2        9.853704
   3       66.298952
   4       77.180070
   5       84.134622
   6      145.482636
   7      151.238569
   8      152.515201
 
  0.5000000E+00  0.0000000E+00  0.0000000E+00  0.5000000E-01
   1        0.431607
   2        9.416477
   3       66.494174
   4       77.588215
   5       80.607623
   6      146.177835
   7      151.335638
   8      153.033461
