       N       E                     dE             d eps       ncg     rms          rms(c)
RMM:   1    -0.107823022535E+02   -0.10782E+02   -0.39634E-01   464   0.412E+00
RMM:   2    -0.107823501769E+02   -0.47923E-04   -0.27265E-05   440   0.212E-02
   1 F= -.10782350E+02 E0= -.10782350E+02  d E =-.111626E-10
