PROCAR lm decomposed
# of k-points:   20         # of bands:   8         # of ions:   1

 k-point    1 :    0.00000000 0.00000000 0.00000000     weight = 0.05000000

band   1 # energy  -13.60323832 # occ.  2.00000000
 
ion      s     py     pz     px    dxy    dyz    dz2    dxz    dx2    tot
  1  0.412  0.000  0.000  0.000  0.000  0.000  0.000  0.000  0.000  0.412
 
band   2 # energy   50.14460544 # occ.  0.00000000
 
ion      s     py     pz     px    dxy    dyz    dz2    dxz    dx2    tot
  1  0.493  0.000  0.000  0.000  0.000  0.000  0.000  0.000  0.000  0.493
 
band   3 # energy   61.60664222 # occ.  0.00000000
 
ion      s     py     pz     px    dxy    dyz    dz2    dxz    dx2    tot
  1  0.000  0.161  0.615  0.069  0.000  0.000  0.000  0.000  0.000  0.845
 
band   4 # energy   61.60664233 # occ.  0.00000000
 
ion      s     py     pz     px    dxy    dyz    dz2    dxz    dx2    tot
  1  0.000  0.258  0.002  0.585  0.000  0.000  0.000  0.000  0.000  0.845
 
band   5 # energy   63.58816455 # occ.  0.00000000
 
ion      s     py     pz     px    dxy    dyz    dz2    dxz    dx2    tot
  1  0.000  0.002  0.001  0.001  0.000  0.000  0.000  0.000  0.000  0.004
 
band   6 # energy  123.20380777 # occ.  0.00000000
 
ion      s     py     pz     px    dxy    dyz    dz2    dxz    dx2    tot
  1  0.295  0.000  0.000  0.001  0.000  0.000  0.000  0.000  0.000  0.297
 
band   7 # energy  134.25676985 # occ.  0.00000000
 
ion      s     py     pz     px    dxy    dyz    dz2    dxz    dx2    tot
  1  0.000  0.508  0.088  1.342  0.000  0.000  0.000  0.000  0.000  1.939
 
band   8 # energy  136.03242622 # occ.  0.00000000
 
ion      s     py     pz     px    dxy    dyz    dz2    dxz    dx2    tot
  1  0.000  0.392  0.085  0.033  0.000  0.000  0.000  0.000  0.000  0.510
 

 k-point    2 :    0.02631579 0.00000000 0.00000000     weight = 0.05000000

band   1 # energy  -13.55441767 # occ.  2.00000000
 
ion      s     py     pz     px    dxy    dyz    dz2    dxz    dx2    tot
  1  0.412  0.000  0.000  0.000  0.000  0.000  0.000  0.000  0.000  0.412
 
band   2 # energy   49.76330316 # occ.  0.00000000
 
ion      s     py     pz     px    dxy    dyz    dz2    dxz    dx2    tot
  1  0.475  0.000  0.000  0.022  0.000  0.000  0.000  0.000  0.000  0.498
 
band   3 # energy   59.68553470 # occ.  0.00000000
 
ion      s     py     pz     px    dxy    dyz    dz2    dxz    dx2    tot
  1  0.014  0.000  0.000  0.484  0.000  0.000  0.000  0.000  0.000  0.498
 
band   4 # energy   61.65680052 # occ.  0.00000000
 
ion      s     py     pz     px    dxy    dyz    dz2    dxz    dx2    tot
  1  0.000  0.554  0.291  0.000  0.000  0.000  0.000  0.000  0.000  0.845
 
band   5 # energy   65.99387887 # occ.  0.00000000
 
ion      s     py     pz     px    dxy    dyz    dz2    dxz    dx2    tot
  1  0.004  0.000  0.000  0.316  0.000  0.000  0.000  0.000  0.000  0.320
 
band   6 # energy  124.29693226 # occ.  0.00000000
 
ion      s     py     pz     px    dxy    dyz    dz2    dxz    dx2    tot
  1  0.259  0.092  0.022  0.007  0.000  0.000  0.000  0.000  0.000  0.380
 
band   7 # energy  132.50615949 # occ.  0.00000000
 
ion      s     py     pz     px    dxy    dyz    dz2    dxz    dx2    tot
  1  0.000  0.301  0.048  0.185  0.000  0.000  0.000  0.000  0.000  0.534
 
band   8 # energy  134.11152200 # occ.  0.00000000
 
ion      s     py     pz     px    dxy    dyz    dz2    dxz    dx2    tot
  1  0.000  0.112  0.249  0.002  0.000  0.000  0.000  0.000  0.000  0.363
 

 k-point    3 :    0.05263158 0.00000000 0.00000000     weight = 0.05000000

band   1 # energy  -13.40800578 # occ.  2.00000000
 
ion      s     py     pz     px    dxy    dyz    dz2    dxz    dx2    tot
  1  0.411  0.000  0.000  0.001  0.000  0.000  0.000  0.000  0.000  0.412
 
band   2 # energy   48.53937159 # occ.  0.00000000
 
ion      s     py     pz     px    dxy    dyz    dz2    dxz    dx2    tot
  1  0.419  0.000  0.000  0.080  0.000  0.000  0.000  0.000  0.000  0.500
 
band   3 # energy   57.80479065 # occ.  0.00000000
 
ion      s     py     pz     px    dxy    dyz    dz2    dxz    dx2    tot
  1  0.065  0.000  0.000  0.362  0.000  0.000  0.000  0.000  0.000  0.427
 
band   4 # energy   61.80726015 # occ.  0.00000000
 
ion      s     py     pz     px    dxy    dyz    dz2    dxz    dx2    tot
  1  0.000  0.604  0.243  0.000  0.000  0.000  0.000  0.000  0.000  0.847
 
band   5 # energy  121.18856564 # occ.  0.00000000
 
ion      s     py     pz     px    dxy    dyz    dz2    dxz    dx2    tot
  1  0.247  0.003  0.031  0.247  0.000  0.000  0.000  0.000  0.000  0.528
 
band   6 # energy  133.10472497 # occ.  0.00000000
 
ion      s     py     pz     px    dxy    dyz    dz2    dxz    dx2    tot
  1  0.012  0.011  0.242  0.242  0.000  0.000  0.000  0.000  0.000  0.508
 
band   7 # energy  137.04907918 # occ.  0.00000000
 
ion      s     py     pz     px    dxy    dyz    dz2    dxz    dx2    tot
  1  0.036  0.011  0.028  1.292  0.000  0.000  0.000  0.000  0.000  1.367
 
band   8 # energy  206.47383129 # occ.  0.00000000
 
ion      s     py     pz     px    dxy    dyz    dz2    dxz    dx2    tot
  1  0.021  0.571  0.563  0.045  0.000  0.000  0.000  0.000  0.000  1.200
 

 k-point    4 :    0.07894737 0.00000000 0.00000000     weight = 0.05000000

band   1 # energy  -13.16415660 # occ.  2.00000000
 
ion      s     py     pz     px    dxy    dyz    dz2    dxz    dx2    tot
  1  0.411  0.000  0.000  0.002  0.000  0.000  0.000  0.000  0.000  0.413
 
band   2 # energy   46.48207745 # occ.  0.00000000
 
ion      s     py     pz     px    dxy    dyz    dz2    dxz    dx2    tot
  1  0.342  0.000  0.000  0.146  0.000  0.000  0.000  0.000  0.000  0.488
 
band   3 # energy   56.78649049 # occ.  0.00000000
 
ion      s     py     pz     px    dxy    dyz    dz2    dxz    dx2    tot
  1  0.136  0.000  0.000  0.252  0.000  0.000  0.000  0.000  0.000  0.388
 
band   4 # energy   62.05795395 # occ.  0.00000000
 
ion      s     py     pz     px    dxy    dyz    dz2    dxz    dx2    tot
  1  0.000  0.849  0.000  0.000  0.000  0.000  0.000  0.000  0.000  0.849
 
band   5 # energy   73.20425067 # occ.  0.00000000
 
ion      s     py     pz     px    dxy    dyz    dz2    dxz    dx2    tot
  1  0.023  0.000  0.003  0.350  0.000  0.000  0.000  0.000  0.000  0.376
 
band   6 # energy  119.94295403 # occ.  0.00000000
 
ion      s     py     pz     px    dxy    dyz    dz2    dxz    dx2    tot
  1  0.147  0.018  0.357  0.343  0.000  0.000  0.000  0.000  0.000  0.865
 
band   7 # energy  133.09082068 # occ.  0.00000000
 
ion      s     py     pz     px    dxy    dyz    dz2    dxz    dx2    tot
  1  0.053  0.256  0.356  0.277  0.000  0.000  0.000  0.000  0.000  0.942
 
band   8 # energy  203.87811842 # occ.  0.00000000
 
ion      s     py     pz     px    dxy    dyz    dz2    dxz    dx2    tot
  1  0.022  0.074  0.526  0.369  0.000  0.000  0.000  0.000  0.000  0.990
 

 k-point    5 :    0.10526316 0.00000000 0.00000000     weight = 0.05000000

band   1 # energy  -12.82314042 # occ.  2.00000000
 
ion      s     py     pz     px    dxy    dyz    dz2    dxz    dx2    tot
  1  0.411  0.000  0.000  0.003  0.000  0.000  0.000  0.000  0.000  0.413
 
band   2 # energy   43.87280809 # occ.  0.00000000
 
ion      s     py     pz     px    dxy    dyz    dz2    dxz    dx2    tot
  1  0.280  0.000  0.000  0.187  0.000  0.000  0.000  0.000  0.000  0.467
 
band   3 # energy   56.42845957 # occ.  0.00000000
 
ion      s     py     pz     px    dxy    dyz    dz2    dxz    dx2    tot
  1  0.195  0.000  0.000  0.191  0.000  0.000  0.000  0.000  0.000  0.387
 
band   4 # energy   62.40880260 # occ.  0.00000000
 
ion      s     py     pz     px    dxy    dyz    dz2    dxz    dx2    tot
  1  0.000  0.773  0.078  0.000  0.000  0.000  0.000  0.000  0.000  0.852
 
band   5 # energy   74.81022005 # occ.  0.00000000
 
ion      s     py     pz     px    dxy    dyz    dz2    dxz    dx2    tot
  1  0.019  0.008  0.069  0.369  0.000  0.000  0.000  0.000  0.000  0.465
 
band   6 # energy   77.87395497 # occ.  0.00000000
 
ion      s     py     pz     px    dxy    dyz    dz2    dxz    dx2    tot
  1  0.034  0.027  0.165  0.001  0.000  0.000  0.000  0.000  0.000  0.228
 
band   7 # energy  118.91143417 # occ.  0.00000000
 
ion      s     py     pz     px    dxy    dyz    dz2    dxz    dx2    tot
  1  0.113  0.122  0.026  0.195  0.000  0.000  0.000  0.000  0.000  0.456
 
band   8 # energy  138.17387889 # occ.  0.00000000
 
ion      s     py     pz     px    dxy    dyz    dz2    dxz    dx2    tot
  1  0.030  0.196  0.180  0.014  0.000  0.000  0.000  0.000  0.000  0.419
 

 k-point    6 :    0.13157895 0.00000000 0.00000000     weight = 0.05000000

band   1 # energy  -12.38284037 # occ.  2.00000000
 
ion      s     py     pz     px    dxy    dyz    dz2    dxz    dx2    tot
  1  0.410  0.000  0.000  0.004  0.000  0.000  0.000  0.000  0.000  0.414
 
band   2 # energy   41.01043608 # occ.  0.00000000
 
ion      s     py     pz     px    dxy    dyz    dz2    dxz    dx2    tot
  1  0.239  0.000  0.000  0.206  0.000  0.000  0.000  0.000  0.000  0.445
 
band   3 # energy   56.47932638 # occ.  0.00000000
 
ion      s     py     pz     px    dxy    dyz    dz2    dxz    dx2    tot
  1  0.233  0.000  0.000  0.148  0.000  0.000  0.000  0.000  0.000  0.382
 
band   4 # energy   62.85967046 # occ.  0.00000000
 
ion      s     py     pz     px    dxy    dyz    dz2    dxz    dx2    tot
  1  0.000  0.416  0.440  0.000  0.000  0.000  0.000  0.000  0.000  0.856
 
band   5 # energy   87.85777584 # occ.  0.00000000
 
ion      s     py     pz     px    dxy    dyz    dz2    dxz    dx2    tot
  1  0.055  0.031  0.028  0.309  0.000  0.000  0.000  0.000  0.000  0.424
 
band   6 # energy  112.20198175 # occ.  0.00000000
 
ion      s     py     pz     px    dxy    dyz    dz2    dxz    dx2    tot
  1  0.132  0.063  0.008  0.595  0.000  0.000  0.000  0.000  0.000  0.798
 
band   7 # energy  129.72852709 # occ.  0.00000000
 
ion      s     py     pz     px    dxy    dyz    dz2    dxz    dx2    tot
  1  0.022  0.037  0.191  0.021  0.000  0.000  0.000  0.000  0.000  0.272
 
band   8 # energy  150.42960907 # occ.  0.00000000
 
ion      s     py     pz     px    dxy    dyz    dz2    dxz    dx2    tot
  1  0.002  0.009  0.070  0.001  0.000  0.000  0.000  0.000  0.000  0.082
 

 k-point    7 :    0.15789474 0.00000000 0.00000000     weight = 0.05000000

band   1 # energy  -11.85540516 # occ.  2.00000000
 
ion      s     py     pz     px    dxy    dyz    dz2    dxz    dx2    tot
  1  0.409  0.000  0.000  0.005  0.000  0.000  0.000  0.000  0.000  0.414
 
band   2 # energy   38.01260356 # occ.  0.00000000
 
ion      s     py     pz     px    dxy    dyz    dz2    dxz    dx2    tot
  1  0.214  0.000  0.000  0.235  0.000  0.000  0.000  0.000  0.000  0.448
 
band   3 # energy   56.76246976 # occ.  0.00000000
 
ion      s     py     pz     px    dxy    dyz    dz2    dxz    dx2    tot
  1  0.258  0.000  0.000  0.125  0.000  0.000  0.000  0.000  0.000  0.383
 
band   4 # energy   63.40896362 # occ.  0.00000000
 
ion      s     py     pz     px    dxy    dyz    dz2    dxz    dx2    tot
  1  0.000  0.205  0.660  0.000  0.000  0.000  0.000  0.000  0.000  0.865
 
band   5 # energy   85.93158108 # occ.  0.00000000
 
ion      s     py     pz     px    dxy    dyz    dz2    dxz    dx2    tot
  1  0.035  0.002  0.002  0.454  0.000  0.000  0.000  0.000  0.000  0.493
 
band   6 # energy  114.00775199 # occ.  0.00000000
 
ion      s     py     pz     px    dxy    dyz    dz2    dxz    dx2    tot
  1  0.029  0.050  0.352  0.090  0.000  0.000  0.000  0.000  0.000  0.521
 
band   7 # energy  131.05134737 # occ.  0.00000000
 
ion      s     py     pz     px    dxy    dyz    dz2    dxz    dx2    tot
  1  0.023  0.063  0.362  0.003  0.000  0.000  0.000  0.000  0.000  0.451
 
band   8 # energy  141.90000553 # occ.  0.00000000
 
ion      s     py     pz     px    dxy    dyz    dz2    dxz    dx2    tot
  1  0.002  0.056  0.062  0.057  0.000  0.000  0.000  0.000  0.000  0.176
 

 k-point    8 :    0.18421053 0.00000000 0.00000000     weight = 0.05000000

band   1 # energy  -11.22675343 # occ.  2.00000000
 
ion      s     py     pz     px    dxy    dyz    dz2    dxz    dx2    tot
  1  0.409  0.000  0.000  0.006  0.000  0.000  0.000  0.000  0.000  0.416
 
band   2 # energy   35.06945685 # occ.  0.00000000
 
ion      s     py     pz     px    dxy    dyz    dz2    dxz    dx2    tot
  1  0.197  0.000  0.000  0.231  0.000  0.000  0.000  0.000  0.000  0.428
 
band   3 # energy   57.21947797 # occ.  0.00000000
 
ion      s     py     pz     px    dxy    dyz    dz2    dxz    dx2    tot
  1  0.275  0.000  0.000  0.114  0.000  0.000  0.000  0.000  0.000  0.389
 
band   4 # energy   64.05884735 # occ.  0.00000000
 
ion      s     py     pz     px    dxy    dyz    dz2    dxz    dx2    tot
  1  0.000  0.490  0.381  0.000  0.000  0.000  0.000  0.000  0.000  0.872
 
band   5 # energy   99.88655588 # occ.  0.00000000
 
ion      s     py     pz     px    dxy    dyz    dz2    dxz    dx2    tot
  1  0.015  0.062  0.080  0.948  0.000  0.000  0.000  0.000  0.000  1.104
 
band   6 # energy  132.65873205 # occ.  0.00000000
 
ion      s     py     pz     px    dxy    dyz    dz2    dxz    dx2    tot
  1  0.074  0.044  0.034  0.207  0.000  0.000  0.000  0.000  0.000  0.359
 
band   7 # energy  156.76396018 # occ.  0.00000000
 
ion      s     py     pz     px    dxy    dyz    dz2    dxz    dx2    tot
  1  0.003  1.092  0.010  0.106  0.000  0.000  0.000  0.000  0.000  1.210
 
band   8 # energy  168.98684713 # occ.  0.00000000
 
ion      s     py     pz     px    dxy    dyz    dz2    dxz    dx2    tot
  1  0.126  0.061  0.330  0.115  0.000  0.000  0.000  0.000  0.000  0.633
 

 k-point    9 :    0.21052632 0.00000000 0.00000000     weight = 0.05000000

band   1 # energy  -10.50397000 # occ.  2.00000000
 
ion      s     py     pz     px    dxy    dyz    dz2    dxz    dx2    tot
  1  0.409  0.000  0.000  0.008  0.000  0.000  0.000  0.000  0.000  0.418
 
band   2 # energy   32.17240383 # occ.  0.00000000
 
ion      s     py     pz     px    dxy    dyz    dz2    dxz    dx2    tot
  1  0.186  0.000  0.000  0.223  0.000  0.000  0.000  0.000  0.000  0.409
 
band   3 # energy   57.80628991 # occ.  0.00000000
 
ion      s     py     pz     px    dxy    dyz    dz2    dxz    dx2    tot
  1  0.287  0.000  0.000  0.108  0.000  0.000  0.000  0.000  0.000  0.396
 
band   4 # energy   64.80820097 # occ.  0.00000000
 
ion      s     py     pz     px    dxy    dyz    dz2    dxz    dx2    tot
  1  0.000  0.633  0.248  0.000  0.000  0.000  0.000  0.000  0.000  0.881
 
band   5 # energy  106.19471398 # occ.  0.00000000
 
ion      s     py     pz     px    dxy    dyz    dz2    dxz    dx2    tot
  1  0.002  0.008  0.492  0.151  0.000  0.000  0.000  0.000  0.000  0.652
 
band   6 # energy  126.14646622 # occ.  0.00000000
 
ion      s     py     pz     px    dxy    dyz    dz2    dxz    dx2    tot
  1  0.097  0.020  0.058  0.001  0.000  0.000  0.000  0.000  0.000  0.176
 
band   7 # energy  168.82688266 # occ.  0.00000000
 
ion      s     py     pz     px    dxy    dyz    dz2    dxz    dx2    tot
  1  0.122  0.109  0.141  0.147  0.000  0.000  0.000  0.000  0.000  0.520
 
band   8 # energy  177.26949517 # occ.  0.00000000
 
ion      s     py     pz     px    dxy    dyz    dz2    dxz    dx2    tot
  1  0.048  0.576  0.022  0.054  0.000  0.000  0.000  0.000  0.000  0.700
 

 k-point   10 :    0.23684211 0.00000000 0.00000000     weight = 0.05000000

band   1 # energy   -9.68868439 # occ.  2.00000000
 
ion      s     py     pz     px    dxy    dyz    dz2    dxz    dx2    tot
  1  0.410  0.000  0.000  0.011  0.000  0.000  0.000  0.000  0.000  0.421
 
band   2 # energy   29.34550108 # occ.  0.00000000
 
ion      s     py     pz     px    dxy    dyz    dz2    dxz    dx2    tot
  1  0.178  0.000  0.000  0.214  0.000  0.000  0.000  0.000  0.000  0.392
 
band   3 # energy   58.50378754 # occ.  0.00000000
 
ion      s     py     pz     px    dxy    dyz    dz2    dxz    dx2    tot
  1  0.298  0.000  0.000  0.105  0.000  0.000  0.000  0.000  0.000  0.403
 
band   4 # energy   65.65893081 # occ.  0.00000000
 
ion      s     py     pz     px    dxy    dyz    dz2    dxz    dx2    tot
  1  0.000  0.268  0.623  0.000  0.000  0.000  0.000  0.000  0.000  0.891
 
band   5 # energy  102.76364103 # occ.  0.00000000
 
ion      s     py     pz     px    dxy    dyz    dz2    dxz    dx2    tot
  1  0.011  0.063  0.069  0.434  0.000  0.000  0.000  0.000  0.000  0.577
 
band   6 # energy  103.59184779 # occ.  0.00000000
 
ion      s     py     pz     px    dxy    dyz    dz2    dxz    dx2    tot
  1  0.000  0.032  0.350  0.462  0.000  0.000  0.000  0.000  0.000  0.844
 
band   7 # energy  123.38197391 # occ.  0.00000000
 
ion      s     py     pz     px    dxy    dyz    dz2    dxz    dx2    tot
  1  0.044  0.024  0.036  0.063  0.000  0.000  0.000  0.000  0.000  0.167
 
band   8 # energy  166.21941399 # occ.  0.00000000
 
ion      s     py     pz     px    dxy    dyz    dz2    dxz    dx2    tot
  1  0.167  0.030  0.104  0.174  0.000  0.000  0.000  0.000  0.000  0.475
 

 k-point   11 :    0.26315789 0.00000000 0.00000000     weight = 0.05000000

band   1 # energy   -8.78322694 # occ.  0.00000000
 
ion      s     py     pz     px    dxy    dyz    dz2    dxz    dx2    tot
  1  0.411  0.000  0.000  0.013  0.000  0.000  0.000  0.000  0.000  0.425
 
band   2 # energy   26.60387425 # occ.  0.00000000
 
ion      s     py     pz     px    dxy    dyz    dz2    dxz    dx2    tot
  1  0.171  0.000  0.000  0.204  0.000  0.000  0.000  0.000  0.000  0.375
 
band   3 # energy   59.29723187 # occ.  0.00000000
 
ion      s     py     pz     px    dxy    dyz    dz2    dxz    dx2    tot
  1  0.306  0.000  0.000  0.103  0.000  0.000  0.000  0.000  0.000  0.410
 
band   4 # energy   66.60771125 # occ.  0.00000000
 
ion      s     py     pz     px    dxy    dyz    dz2    dxz    dx2    tot
  1  0.000  0.224  0.675  0.000  0.000  0.000  0.000  0.000  0.000  0.899
 
band   5 # energy  101.29093166 # occ.  0.00000000
 
ion      s     py     pz     px    dxy    dyz    dz2    dxz    dx2    tot
  1  0.008  0.002  0.676  0.062  0.000  0.000  0.000  0.000  0.000  0.748
 
band   6 # energy  114.42069237 # occ.  0.00000000
 
ion      s     py     pz     px    dxy    dyz    dz2    dxz    dx2    tot
  1  0.108  0.271  0.069  0.411  0.000  0.000  0.000  0.000  0.000  0.860
 
band   7 # energy  133.36277720 # occ.  0.00000000
 
ion      s     py     pz     px    dxy    dyz    dz2    dxz    dx2    tot
  1  0.026  0.082  0.068  0.155  0.000  0.000  0.000  0.000  0.000  0.331
 
band   8 # energy  171.51651401 # occ.  0.00000000
 
ion      s     py     pz     px    dxy    dyz    dz2    dxz    dx2    tot
  1  0.122  0.025  0.014  0.172  0.000  0.000  0.000  0.000  0.000  0.333
 

 k-point   12 :    0.28947368 0.00000000 0.00000000     weight = 0.05000000

band   1 # energy   -7.79101546 # occ.  0.00000000
 
ion      s     py     pz     px    dxy    dyz    dz2    dxz    dx2    tot
  1  0.414  0.000  0.000  0.016  0.000  0.000  0.000  0.000  0.000  0.430
 
band   2 # energy   23.95867181 # occ.  0.00000000
 
ion      s     py     pz     px    dxy    dyz    dz2    dxz    dx2    tot
  1  0.165  0.000  0.000  0.194  0.000  0.000  0.000  0.000  0.000  0.359
 
band   3 # energy   60.17804397 # occ.  0.00000000
 
ion      s     py     pz     px    dxy    dyz    dz2    dxz    dx2    tot
  1  0.313  0.001  0.000  0.101  0.000  0.000  0.000  0.000  0.000  0.416
 
band   4 # energy   68.47243715 # occ.  0.00000000
 
ion      s     py     pz     px    dxy    dyz    dz2    dxz    dx2    tot
  1  0.000  0.539  0.000  0.000  0.000  0.000  0.000  0.000  0.000  0.540
 
band   5 # energy   95.26707018 # occ.  0.00000000
 
ion      s     py     pz     px    dxy    dyz    dz2    dxz    dx2    tot
  1  0.103  0.032  0.095  0.427  0.000  0.000  0.000  0.000  0.000  0.658
 
band   6 # energy  104.43493519 # occ.  0.00000000
 
ion      s     py     pz     px    dxy    dyz    dz2    dxz    dx2    tot
  1  0.002  0.136  0.066  0.923  0.000  0.000  0.000  0.000  0.000  1.127
 
band   7 # energy  162.19738352 # occ.  0.00000000
 
ion      s     py     pz     px    dxy    dyz    dz2    dxz    dx2    tot
  1  0.106  0.196  0.608  0.093  0.000  0.000  0.000  0.000  0.000  1.004
 
band   8 # energy  179.84038005 # occ.  0.00000000
 
ion      s     py     pz     px    dxy    dyz    dz2    dxz    dx2    tot
  1  0.002  0.091  0.155  1.367  0.000  0.000  0.000  0.000  0.000  1.615
 

 k-point   13 :    0.31578947 0.00000000 0.00000000     weight = 0.05000000

band   1 # energy   -6.71723115 # occ.  0.00000000
 
ion      s     py     pz     px    dxy    dyz    dz2    dxz    dx2    tot
  1  0.418  0.000  0.000  0.018  0.000  0.000  0.000  0.000  0.000  0.436
 
band   2 # energy   21.41997108 # occ.  0.00000000
 
ion      s     py     pz     px    dxy    dyz    dz2    dxz    dx2    tot
  1  0.158  0.000  0.000  0.185  0.000  0.000  0.000  0.000  0.000  0.342
 
band   3 # energy   61.12706517 # occ.  0.00000000
 
ion      s     py     pz     px    dxy    dyz    dz2    dxz    dx2    tot
  1  0.324  0.002  0.000  0.096  0.000  0.000  0.000  0.000  0.000  0.422
 
band   4 # energy   69.61095992 # occ.  0.00000000
 
ion      s     py     pz     px    dxy    dyz    dz2    dxz    dx2    tot
  1  0.000  0.553  0.000  0.000  0.000  0.000  0.000  0.000  0.000  0.553
 
band   5 # energy   98.98712333 # occ.  0.00000000
 
ion      s     py     pz     px    dxy    dyz    dz2    dxz    dx2    tot
  1  0.033  0.158  0.133  0.019  0.000  0.000  0.000  0.000  0.000  0.344
 
band   6 # energy  108.54734936 # occ.  0.00000000
 
ion      s     py     pz     px    dxy    dyz    dz2    dxz    dx2    tot
  1  0.014  0.301  0.210  0.650  0.000  0.000  0.000  0.000  0.000  1.174
 
band   7 # energy  148.97130340 # occ.  0.00000000
 
ion      s     py     pz     px    dxy    dyz    dz2    dxz    dx2    tot
  1  0.132  0.046  0.101  0.239  0.000  0.000  0.000  0.000  0.000  0.518
 
band   8 # energy  145.28282546 # occ.  0.00000000
 
ion      s     py     pz     px    dxy    dyz    dz2    dxz    dx2    tot
  1  0.010  0.012  0.665  0.066  0.000  0.000  0.000  0.000  0.000  0.753
 

 k-point   14 :    0.34210526 0.00000000 0.00000000     weight = 0.05000000

band   1 # energy   -5.57763323 # occ.  0.00000000
 
ion      s     py     pz     px    dxy    dyz    dz2    dxz    dx2    tot
  1  0.425  0.000  0.000  0.019  0.000  0.000  0.000  0.000  0.000  0.444
 
band   2 # energy   18.98980971 # occ.  0.00000000
 
ion      s     py     pz     px    dxy    dyz    dz2    dxz    dx2    tot
  1  0.149  0.000  0.000  0.180  0.000  0.000  0.000  0.000  0.000  0.328
 
band   3 # energy   62.07654474 # occ.  0.00000000
 
ion      s     py     pz     px    dxy    dyz    dz2    dxz    dx2    tot
  1  0.335  0.002  0.000  0.088  0.000  0.000  0.000  0.000  0.000  0.425
 
band   4 # energy   70.74624817 # occ.  0.00000000
 
ion      s     py     pz     px    dxy    dyz    dz2    dxz    dx2    tot
  1  0.000  0.624  0.000  0.000  0.000  0.000  0.000  0.000  0.000  0.624
 
band   5 # energy   92.48876629 # occ.  0.00000000
 
ion      s     py     pz     px    dxy    dyz    dz2    dxz    dx2    tot
  1  0.034  0.118  0.221  0.193  0.000  0.000  0.000  0.000  0.000  0.567
 
band   6 # energy   93.63994902 # occ.  0.00000000
 
ion      s     py     pz     px    dxy    dyz    dz2    dxz    dx2    tot
  1  0.021  0.123  0.029  0.116  0.000  0.000  0.000  0.000  0.000  0.289
 
band   7 # energy  142.16892619 # occ.  0.00000000
 
ion      s     py     pz     px    dxy    dyz    dz2    dxz    dx2    tot
  1  0.061  0.477  0.077  0.007  0.000  0.000  0.000  0.000  0.000  0.623
 
band   8 # energy  176.74036530 # occ.  0.00000000
 
ion      s     py     pz     px    dxy    dyz    dz2    dxz    dx2    tot
  1  0.114  0.051  0.069  0.426  0.000  0.000  0.000  0.000  0.000  0.660
 

 k-point   15 :    0.36842105 0.00000000 0.00000000     weight = 0.05000000

band   1 # energy   -4.37135474 # occ.  0.00000000
 
ion      s     py     pz     px    dxy    dyz    dz2    dxz    dx2    tot
  1  0.435  0.000  0.000  0.021  0.000  0.000  0.000  0.000  0.000  0.456
 
band   2 # energy   16.70341052 # occ.  0.00000000
 
ion      s     py     pz     px    dxy    dyz    dz2    dxz    dx2    tot
  1  0.137  0.000  0.000  0.173  0.000  0.000  0.000  0.000  0.000  0.309
 
band   3 # energy   63.09019309 # occ.  0.00000000
 
ion      s     py     pz     px    dxy    dyz    dz2    dxz    dx2    tot
  1  0.348  0.002  0.000  0.080  0.000  0.000  0.000  0.000  0.000  0.430
 
band   4 # energy   71.99072425 # occ.  0.00000000
 
ion      s     py     pz     px    dxy    dyz    dz2    dxz    dx2    tot
  1  0.000  0.684  0.000  0.000  0.000  0.000  0.000  0.000  0.000  0.685
 
band   5 # energy   90.44752929 # occ.  0.00000000
 
ion      s     py     pz     px    dxy    dyz    dz2    dxz    dx2    tot
  1  0.020  0.412  0.038  0.139  0.000  0.000  0.000  0.000  0.000  0.608
 
band   6 # energy   98.95194070 # occ.  0.00000000
 
ion      s     py     pz     px    dxy    dyz    dz2    dxz    dx2    tot
  1  0.026  0.036  0.092  0.104  0.000  0.000  0.000  0.000  0.000  0.258
 
band   7 # energy  139.16518901 # occ.  0.00000000
 
ion      s     py     pz     px    dxy    dyz    dz2    dxz    dx2    tot
  1  0.057  0.093  0.473  0.022  0.000  0.000  0.000  0.000  0.000  0.646
 
band   8 # energy  153.15672760 # occ.  0.00000000
 
ion      s     py     pz     px    dxy    dyz    dz2    dxz    dx2    tot
  1  0.111  0.168  0.020  0.271  0.000  0.000  0.000  0.000  0.000  0.569
 

 k-point   16 :    0.39473684 0.00000000 0.00000000     weight = 0.05000000

band   1 # energy   -3.12935196 # occ.  0.00000000
 
ion      s     py     pz     px    dxy    dyz    dz2    dxz    dx2    tot
  1  0.452  0.000  0.000  0.021  0.000  0.000  0.000  0.000  0.000  0.472
 
band   2 # energy   14.57620852 # occ.  0.00000000
 
ion      s     py     pz     px    dxy    dyz    dz2    dxz    dx2    tot
  1  0.119  0.000  0.000  0.168  0.000  0.000  0.000  0.000  0.000  0.287
 
band   3 # energy   64.06837089 # occ.  0.00000000
 
ion      s     py     pz     px    dxy    dyz    dz2    dxz    dx2    tot
  1  0.364  0.000  0.000  0.069  0.000  0.000  0.000  0.000  0.000  0.433
 
band   4 # energy   73.31108030 # occ.  0.00000000
 
ion      s     py     pz     px    dxy    dyz    dz2    dxz    dx2    tot
  1  0.000  0.759  0.000  0.000  0.000  0.000  0.000  0.000  0.000  0.759
 
band   5 # energy   90.13532763 # occ.  0.00000000
 
ion      s     py     pz     px    dxy    dyz    dz2    dxz    dx2    tot
  1  0.002  0.058  0.028  0.014  0.000  0.000  0.000  0.000  0.000  0.103
 
band   6 # energy  137.95330361 # occ.  0.00000000
 
ion      s     py     pz     px    dxy    dyz    dz2    dxz    dx2    tot
  1  0.053  0.167  0.222  0.186  0.000  0.000  0.000  0.000  0.000  0.627
 
band   7 # energy  146.91300174 # occ.  0.00000000
 
ion      s     py     pz     px    dxy    dyz    dz2    dxz    dx2    tot
  1  0.101  0.025  0.179  0.000  0.000  0.000  0.000  0.000  0.000  0.305
 
band   8 # energy  145.22474461 # occ.  0.00000000
 
ion      s     py     pz     px    dxy    dyz    dz2    dxz    dx2    tot
  1  0.070  0.293  0.063  0.053  0.000  0.000  0.000  0.000  0.000  0.479
 

 k-point   17 :    0.42105263 0.00000000 0.00000000     weight = 0.05000000

band   1 # energy   -1.89640754 # occ.  0.00000000
 
ion      s     py     pz     px    dxy    dyz    dz2    dxz    dx2    tot
  1  0.476  0.000  0.000  0.019  0.000  0.000  0.000  0.000  0.000  0.494
 
band   2 # energy   12.65402754 # occ.  0.00000000
 
ion      s     py     pz     px    dxy    dyz    dz2    dxz    dx2    tot
  1  0.094  0.000  0.000  0.167  0.000  0.000  0.000  0.000  0.000  0.261
 
band   3 # energy   65.00383573 # occ.  0.00000000
 
ion      s     py     pz     px    dxy    dyz    dz2    dxz    dx2    tot
  1  0.381  0.000  0.000  0.052  0.000  0.000  0.000  0.000  0.000  0.433
 
band   4 # energy   74.74010180 # occ.  0.00000000
 
ion      s     py     pz     px    dxy    dyz    dz2    dxz    dx2    tot
  1  0.000  0.825  0.000  0.000  0.000  0.000  0.000  0.000  0.000  0.825
 
band   5 # energy   87.74491372 # occ.  0.00000000
 
ion      s     py     pz     px    dxy    dyz    dz2    dxz    dx2    tot
  1  0.001  0.200  0.009  0.018  0.000  0.000  0.000  0.000  0.000  0.228
 
band   6 # energy  117.73724963 # occ.  0.00000000
 
ion      s     py     pz     px    dxy    dyz    dz2    dxz    dx2    tot
  1  0.027  0.148  0.329  0.117  0.000  0.000  0.000  0.000  0.000  0.621
 
band   7 # energy  145.71700538 # occ.  0.00000000
 
ion      s     py     pz     px    dxy    dyz    dz2    dxz    dx2    tot
  1  0.069  0.035  0.490  0.201  0.000  0.000  0.000  0.000  0.000  0.795
 
band   8 # energy  156.91097159 # occ.  0.00000000
 
ion      s     py     pz     px    dxy    dyz    dz2    dxz    dx2    tot
  1  0.042  0.005  0.060  0.361  0.000  0.000  0.000  0.000  0.000  0.468
 

 k-point   18 :    0.44736842 0.00000000 0.00000000     weight = 0.05000000

band   1 # energy   -0.77100962 # occ.  0.00000000
 
ion      s     py     pz     px    dxy    dyz    dz2    dxz    dx2    tot
  1  0.510  0.000  0.000  0.011  0.000  0.000  0.000  0.000  0.000  0.521
 
band   2 # energy   11.01388224 # occ.  0.00000000
 
ion      s     py     pz     px    dxy    dyz    dz2    dxz    dx2    tot
  1  0.059  0.000  0.000  0.178  0.000  0.000  0.000  0.000  0.000  0.237
 
band   3 # energy   65.76111306 # occ.  0.00000000
 
ion      s     py     pz     px    dxy    dyz    dz2    dxz    dx2    tot
  1  0.399  0.000  0.000  0.026  0.000  0.000  0.000  0.000  0.000  0.425
 
band   4 # energy   75.91226905 # occ.  0.00000000
 
ion      s     py     pz     px    dxy    dyz    dz2    dxz    dx2    tot
  1  0.000  1.085  0.000  0.000  0.000  0.000  0.000  0.000  0.000  1.085
 
band   5 # energy   80.70845241 # occ.  0.00000000
 