   1   1   1   0
  0.2957216E+01  0.1435361E-09  0.1435361E-09  0.1435361E-09  0.5000000E-15
  1.000000000000000E-004
  CAR 
 jump2                                   
    244.29020608    -11.18070711 2001      4.61408148      1.00000000
    -11.181  0.0000E+00  0.0000E+00
    -11.053  0.0000E+00  0.0000E+00
    -10.925  0.0000E+00  0.0000E+00
    -10.798  0.0000E+00  0.0000E+00
    -10.670  0.0000E+00  0.0000E+00
    -10.542  0.0000E+00  0.0000E+00
    -10.414  0.0000E+00  0.0000E+00
    -10.287  0.0000E+00  0.0000E+00
    -10.159  0.0000E+00  0.0000E+00
    -10.031  0.0000E+00  0.0000E+00
     -9.903  0.0000E+00  0.0000E+00
     -9.776  0.0000E+00  0.0000E+00
     -9.648  0.0000E+00  0.0000E+00
     -9.520  0.0000E+00  0.0000E+00
     -9.392  0.0000E+00  0.0000E+00
     -9.265  0.0000E+00  0.0000E+00
     -9.137  0.0000E+00  0.0000E+00
     -9.009  0.0000E+00  0.0000E+00
     -8.881  0.0000E+00  0.0000E+00
     -8.754  0.0000E+00  0.0000E+00
     -8.626  0.0000E+00  0.0000E+00
     -8.498  0.0000E+00  0.0000E+00
     -8.371  0.0000E+00  0.0000E+00
     -8.243  0.0000E+00  0.0000E+00
     -8.115  0.0000E+00  0.0000E+00
     -7.987  0.0000E+00  0.0000E+00
     -7.860  0.0000E+00  0.0000E+00
     -7.732  0.0000E+00  0.0000E+00
     -7.604  0.0000E+00  0.0000E+00
     -7.476  0.0000E+00  0.0000E+00
     -7.349  0.0000E+00  0.0000E+00
     -7.221  0.0000E+00  0.0000E+00
     -7.093  0.0000E+00  0.0000E+00
     -6.965  0.0000E+00  0.0000E+00
     -6.838  0.0000E+00  0.0000E+00
     -6.710  0.0000E+00  0.0000E+00
     -6.582  0.0000E+00  0.0000E+00
     -6.454  0.0000E+00  0.0000E+00
     -6.327  0.0000E+00  0.0000E+00
     -6.199  0.0000E+00  0.0000E+00
     -6.071  0.0000E+00  0.0000E+00
     -5.944  0.0000E+00  0.0000E+00
     -5.816  0.0000E+00  0.0000E+00
     -5.688  0.0000E+00  0.0000E+00
     -5.560  0.0000E+00  0.0000E+00
     -5.433  0.0000E+00  0.0000E+00
     -5.305  0.0000E+00  0.0000E+00
     -5.177  0.0000E+00  0.0000E+00
     -5.049  0.0000E+00  0.0000E+00
     -4.922  0.0000E+00  0.0000E+00
     -4.794  0.0000E+00  0.0000E+00
     -4.666  0.0000E+00  0.0000E+00
     -4.538  0.0000E+00  0.0000E+00
     -4.411  0.0000E+00  0.0000E+00
     -4.283  0.0000E+00  0.0000E+00
     -4.155  0.0000E+00  0.0000E+00
     -4.028  0.0000E+00  0.0000E+00
     -3.900  0.0000E+00  0.0000E+00
     -3.772  0.0000E+00  0.0000E+00
     -3.644  0.0000E+00  0.0000E+00
     -3.517  0.0000E+00  0.0000E+00
     -3.389  0.0000E+00  0.0000E+00
     -3.261  0.0000E+00  0.0000E+00
     -3.133  0.0000E+00  0.0000E+00
     -3.006  0.0000E+00  0.0000E+00
     -2.878  0.0000E+00  0.0000E+00
     -2.750  0.0000E+00  0.0000E+00
     -2.622  0.0000E+00  0.0000E+00
     -2.495  0.0000E+00  0.0000E+00
     -2.367  0.0000E+00  0.0000E+00
     -2.239  0.0000E+00  0.0000E+00
     -2.111  0.0000E+00  0.0000E+00
     -1.984  0.0000E+00  0.0000E+00
     -1.856  0.0000E+00  0.0000E+00
     -1.728  0.0000E+00  0.0000E+00
     -1.601  0.0000E+00  0.0000E+00
     -1.473  0.0000E+00  0.0000E+00
     -1.345  0.0000E+00  0.0000E+00
     -1.217  0.0000E+00  0.0000E+00
     -1.090  0.0000E+00  0.0000E+00
     -0.962  0.0000E+00  0.0000E+00
     -0.834  0.0000E+00  0.0000E+00
     -0.706  0.0000E+00  0.0000E+00
     -0.579  0.0000E+00  0.0000E+00
     -0.451  0.0000E+00  0.0000E+00
     -0.323  0.0000E+00  0.0000E+00
     -0.195  0.0000E+00  0.0000E+00
     -0.068  0.6487E-12  0.8286E-13
      0.060  0.5915E-07  0.7556E-08
      0.188  0.2356E-03  0.3010E-04
      0.315  0.4733E-01  0.6076E-02
      0.443  0.6396E+00  0.8777E-01
      0.571  0.9512E+00  0.2093E+00
      0.699  0.5956E+00  0.2853E+00
      0.826  0.3543E+00  0.3306E+00
      0.954  0.4685E+00  0.3904E+00
      1.082  0.1045E+00  0.4038E+00
      1.210  0.3750E+00  0.4517E+00
      1.337  0.3529E+00  0.4968E+00
      1.465  0.3389E-01  0.5011E+00
      1.593  0.2393E+00  0.5317E+00
      1.721  0.4630E+00  0.5908E+00
      1.848  0.7121E-01  0.5999E+00
      1.976  0.9318E-02  0.6011E+00
      2.104  0.2380E+00  0.6315E+00
      2.232  0.4637E+00  0.6907E+00
      2.359  0.7182E-01  0.6999E+00
      2.487  0.8248E-03  0.7000E+00
      2.615  0.3083E-01  0.7040E+00
      2.742  0.3763E+00  0.7520E+00
      2.870  0.3508E+00  0.7968E+00
      2.998  0.2467E-01  0.8000E+00
      3.126  0.1050E-03  0.8000E+00
      3.253  0.5409E-02  0.8007E+00
      3.381  0.1952E+00  0.8256E+00
      3.509  0.4846E+00  0.8875E+00
      3.637  0.9646E-01  0.8998E+00
      3.764  0.1212E-02  0.9000E+00
      3.892  0.1119E-04  0.9000E+00
      4.020  0.6523E-02  0.9008E+00
      4.148  0.2116E+00  0.9279E+00
      4.275  0.4776E+00  0.9889E+00
      4.403  0.8619E-01  0.9999E+00
      4.531  0.9697E-03  0.1000E+01
      4.658  0.5531E-06  0.1000E+01
      4.786  0.1240E-03  0.1000E+01
      4.914  0.2833E-01  0.1004E+01
      5.042  0.3666E+00  0.1050E+01
      5.169  0.3608E+00  0.1097E+01
      5.297  0.2691E-01  0.1100E+01
      5.425  0.1133E-03  0.1100E+01
      5.553  0.2384E-07  0.1100E+01
      5.680  0.2051E-04  0.1100E+01
      5.808  0.9846E-02  0.1101E+01
      5.936  0.2508E+00  0.1133E+01
      6.064  0.4560E+00  0.1192E+01
      6.191  0.6567E-01  0.1200E+01
      6.319  0.5740E-03  0.1200E+01
      6.447  0.2393E-06  0.1200E+01
      6.575  0.2588E-07  0.1200E+01
      6.702  0.1270E-03  0.1200E+01
      6.830  0.2872E-01  0.1204E+01
      6.958  0.3682E+00  0.1251E+01
      7.085  0.3592E+00  0.1297E+01
      7.213  0.2654E-01  0.1300E+01
      7.341  0.1106E-03  0.1300E+01
      7.469  0.2118E-07  0.1300E+01
      7.596  0.5543E-08  0.1300E+01
      7.724  0.4348E-04  0.1300E+01
      7.852  0.1543E-01  0.1302E+01
      7.980  0.2981E+00  0.1340E+01
      8.107  0.4223E+00  0.1394E+01
      8.235  0.4671E-01  0.1400E+01
      8.363  0.3041E-03  0.1400E+01
      8.491  0.9298E-07  0.1400E+01
      8.618  0.7905E-10  0.1400E+01
      8.746  0.2043E-05  0.1400E+01
      8.874  0.2336E-02  0.1400E+01
      9.001  0.1330E+00  0.1417E+01
      9.129  0.4957E+00  0.1481E+01
      9.257  0.1594E+00  0.1501E+01
      9.385  0.3445E+00  0.1545E+01
      9.512  0.9949E+00  0.1672E+01
      9.640  0.7002E+00  0.1762E+01
      9.768  0.3464E+00  0.1806E+01
      9.896  0.4581E+00  0.1864E+01
     10.023  0.3141E+00  0.1904E+01
     10.151  0.5395E+00  0.1973E+01
     10.279  0.7964E+00  0.2075E+01
     10.407  0.1911E+00  0.2099E+01
     10.534  0.2012E-01  0.2102E+01
     10.662  0.3011E+00  0.2140E+01
     10.790  0.4199E+00  0.2194E+01
     10.918  0.4618E-01  0.2200E+01
     11.045  0.6529E-01  0.2208E+01
     11.173  0.6042E+00  0.2286E+01
     11.301  0.7546E+00  0.2382E+01
     11.428  0.1392E+00  0.2400E+01
     11.556  0.2199E-02  0.2400E+01
     11.684  0.1665E-02  0.2400E+01
     11.812  0.1146E+00  0.2415E+01
     11.939  0.6066E+00  0.2492E+01
     12.067  0.6649E+00  0.2577E+01
     12.195  0.1741E+00  0.2599E+01
     12.323  0.3973E-02  0.2600E+01
     12.450  0.5429E-02  0.2601E+01
     12.578  0.2854E+00  0.2637E+01
     12.706  0.9971E+00  0.2765E+01
     12.834  0.4699E+00  0.2825E+01
     12.961  0.4909E+00  0.2887E+01
     13.089  0.9865E-01  0.2900E+01
     13.217  0.1302E-02  0.2900E+01
     13.345  0.1364E-01  0.2902E+01
     13.472  0.2846E+00  0.2938E+01
     13.600  0.4326E+00  0.2993E+01
     13.728  0.5156E-01  0.3000E+01
     13.855  0.3648E-03  0.3000E+01
     13.983  0.1218E-06  0.3000E+01
     14.111  0.7780E-06  0.3000E+01
     14.239  0.1250E-02  0.3000E+01
     14.366  0.9800E-01  0.3013E+01
     14.494  0.4855E+00  0.3075E+01
     14.622  0.1929E+00  0.3099E+01
     14.750  0.5265E-02  0.3100E+01
     14.877  0.7395E-05  0.3100E+01
     15.005  0.4598E-09  0.3100E+01
     15.133  0.8298E-07  0.3100E+01
     15.261  0.2815E-03  0.3100E+01
     15.388  0.4478E-01  0.3106E+01
     15.516  0.4178E+00  0.3159E+01
     15.644  0.3037E+00  0.3198E+01
     15.771  0.1624E-01  0.3200E+01
     15.899  0.4742E-04  0.3200E+01
     16.027  0.6273E-08  0.3200E+01
     16.155  0.9562E-12  0.3200E+01
     16.282  0.7583E-07  0.3200E+01
     16.410  0.2648E-03  0.3200E+01
     16.538  0.4330E-01  0.3206E+01
     16.666  0.4142E+00  0.3258E+01
     16.793  0.3081E+00  0.3298E+01
     16.921  0.1691E-01  0.3300E+01
     17.049  0.5077E-04  0.3300E+01
     17.177  0.6914E-08  0.3300E+01
     17.304  0.3946E-13  0.3300E+01
     17.432  0.1702E-10  0.3300E+01
     17.560  0.6684E-06  0.3300E+01
     17.688  0.1132E-02  0.3300E+01
     17.815  0.9322E-01  0.3312E+01
     17.943  0.4826E+00  0.3374E+01
     18.071  0.2002E+00  0.3399E+01
     18.198  0.5732E-02  0.3400E+01
     18.326  0.8480E-05  0.3400E+01
     18.454  0.5550E-09  0.3400E+01
     18.582  0.1564E-14  0.3400E+01
     18.709  0.2377E-13  0.3400E+01
     18.837  0.4691E-08  0.3400E+01
     18.965  0.3867E-04  0.3400E+01
     19.093  0.1440E-01  0.3402E+01
     19.220  0.2905E+00  0.3439E+01
     19.348  0.4282E+00  0.3494E+01
     19.476  0.4939E-01  0.3500E+01
     19.604  0.3370E-03  0.3500E+01
     19.731  0.1083E-06  0.3500E+01
     19.859  0.1479E-11  0.3500E+01
     19.987  0.0000E+00  0.3500E+01
     20.114  0.1260E-14  0.3500E+01
     20.242  0.4879E-09  0.3500E+01
     20.370  0.7731E-05  0.3500E+01
     20.498  0.5412E-02  0.3501E+01
     20.625  0.1952E+00  0.3526E+01
     20.753  0.4846E+00  0.3588E+01
     20.881  0.9643E-01  0.3600E+01
     21.009  0.1211E-02  0.3600E+01
     21.136  0.7408E-06  0.3600E+01
     21.264  0.1956E-10  0.3600E+01
     21.392  0.0000E+00  0.3600E+01
     21.520  0.0000E+00  0.3600E+01
     21.647  0.1582E-13  0.3600E+01
     21.775  0.3427E-08  0.3600E+01
     21.903  0.3100E-04  0.3600E+01
     22.031  0.1262E-01  0.3602E+01
     22.158  0.2764E+00  0.3637E+01
     22.286  0.4387E+00  0.3693E+01
     22.414  0.5473E-01  0.3700E+01
     22.541  0.4076E-03  0.3700E+01
     22.669  0.1436E-06  0.3700E+01
     22.797  0.2155E-11  0.3700E+01
     22.925  0.0000E+00  0.3700E+01
     23.052  0.0000E+00  0.3700E+01
     23.180  0.9126E-15  0.3700E+01
     23.308  0.3715E-09  0.3700E+01
     23.436  0.6353E-05  0.3700E+01
     23.563  0.4789E-02  0.3701E+01
     23.691  0.1850E+00  0.3724E+01
     23.819  0.4882E+00  0.3787E+01
     23.947  0.1034E+00  0.3800E+01
     24.074  0.1394E-02  0.3800E+01
     24.202  0.9188E-06  0.3800E+01
     24.330  0.2619E-10  0.3800E+01
     24.457  0.0000E+00  0.3800E+01
     24.585  0.0000E+00  0.3800E+01
     24.713  0.7158E-13  0.3800E+01
     24.841  0.1091E-07  0.3800E+01
     24.968  0.6981E-04  0.3800E+01
     25.096  0.2037E-01  0.3803E+01
     25.224  0.3290E+00  0.3845E+01
     25.352  0.3964E+00  0.3895E+01
     25.479  0.3684E-01  0.3900E+01
     25.607  0.1977E-03  0.3900E+01
     25.735  0.1370E-05  0.3900E+01
     25.863  0.1764E-02  0.3900E+01
     25.990  0.1162E+00  0.3915E+01
     26.118  0.4929E+00  0.3978E+01
     26.246  0.1899E+00  0.4002E+01
     26.374  0.3397E+00  0.4046E+01
     26.501  0.3902E+00  0.4096E+01
     26.629  0.3487E-01  0.4100E+01
     26.757  0.1792E-03  0.4100E+01
     26.884  0.4865E-07  0.4100E+01
     27.012  0.4551E-04  0.4100E+01
     27.140  0.1586E-01  0.4102E+01
     27.268  0.3010E+00  0.4140E+01
     27.395  0.4200E+00  0.4194E+01
     27.523  0.4568E-01  0.4200E+01
     27.651  0.2920E-03  0.4200E+01
     27.779  0.8758E-07  0.4200E+01
     27.906  0.1116E-11  0.4200E+01
     28.034  0.0000E+00  0.4200E+01
     28.162  0.3474E-11  0.4200E+01
     28.290  0.2052E-06  0.4200E+01
     28.417  0.5180E-03  0.4200E+01
     28.545  0.6220E-01  0.4208E+01
     28.673  0.4510E+00  0.4266E+01
     28.800  0.2585E+00  0.4299E+01
     28.928  0.1062E-01  0.4300E+01
     29.056  0.2349E-04  0.4300E+01
     29.184  0.5475E-03  0.4300E+01
     29.311  0.6405E-01  0.4308E+01
     29.439  0.4537E+00  0.4366E+01
     29.567  0.2543E+00  0.4399E+01
     29.695  0.1020E-01  0.4400E+01
     29.822  0.2174E-04  0.4400E+01
     29.950  0.3405E-07  0.4400E+01
     30.078  0.1809E-03  0.4400E+01
     30.206  0.4713E-01  0.4406E+01
     30.333  0.6901E+00  0.4494E+01
     30.461  0.7631E+00  0.4592E+01
     30.589  0.6488E-01  0.4600E+01
     30.717  0.3171E-03  0.4600E+01
     30.844  0.7216E-07  0.4600E+01
     30.972  0.6978E-12  0.4600E+01
     31.100  0.0000E+00  0.4600E+01
     31.227  0.0000E+00  0.4600E+01
     31.355  0.0000E+00  0.4600E+01
     31.483  0.0000E+00  0.4600E+01
     31.611  0.0000E+00  0.4600E+01
     31.738  0.1999E-14  0.4600E+01
     31.866  0.6909E-09  0.4600E+01
     31.994  0.9924E-05  0.4600E+01
     32.122  0.6317E-02  0.4601E+01
     32.249  0.2087E+00  0.4627E+01
     32.377  0.4789E+00  0.4689E+01
     32.505  0.8791E-01  0.4700E+01
     32.633  0.1008E-02  0.4700E+01
     32.760  0.5601E-06  0.4700E+01
     32.888  0.1340E-10  0.4700E+01
     33.016  0.0000E+00  0.4700E+01
     33.143  0.0000E+00  0.4700E+01
     33.271  0.0000E+00  0.4700E+01
     33.399  0.0000E+00  0.4700E+01
     33.527  0.0000E+00  0.4700E+01
     33.654  0.8170E-14  0.4700E+01
     33.782  0.2062E-08  0.4700E+01
     33.910  0.2164E-04  0.4700E+01
     34.038  0.1017E-01  0.4701E+01
     34.165  0.2541E+00  0.4734E+01
     34.293  0.4686E+00  0.4794E+01
     34.421  0.3567E+00  0.4839E+01
     34.549  0.4272E+00  0.4894E+01
     34.676  0.4864E-01  0.4900E+01
     34.804  0.3277E-03  0.4900E+01
     34.932  0.1038E-06  0.4900E+01
     35.060  0.1399E-11  0.4900E+01
     35.187  0.0000E+00  0.4900E+01
     35.315  0.0000E+00  0.4900E+01
     35.443  0.0000E+00  0.4900E+01
     35.570  0.0000E+00  0.4900E+01
     35.698  0.0000E+00  0.4900E+01
     35.826  0.0000E+00  0.4900E+01
     35.954  0.0000E+00  0.4900E+01
     36.081  0.0000E+00  0.4900E+01
     36.209  0.6345E-14  0.4900E+01
     36.337  0.1691E-08  0.4900E+01
     36.465  0.1880E-04  0.4900E+01
     36.592  0.9341E-02  0.4901E+01
     36.720  0.2455E+00  0.4933E+01
     36.848  0.4592E+00  0.4991E+01
     36.976  0.6813E-01  0.5000E+01
     37.103  0.6156E-03  0.5000E+01
     37.231  0.2658E-06  0.5000E+01
     37.359  0.4914E-11  0.5000E+01
     37.487  0.0000E+00  0.5000E+01
     37.614  0.0000E+00  0.5000E+01
     37.742  0.0000E+00  0.5000E+01
     37.870  0.0000E+00  0.5000E+01
     37.997  0.0000E+00  0.5000E+01
     38.125  0.0000E+00  0.5000E+01
     38.253  0.0000E+00  0.5000E+01
     38.381  0.0000E+00  0.5000E+01
     38.508  0.0000E+00  0.5000E+01
     38.636  0.3477E-15  0.5000E+01
     38.764  0.1833E-09  0.5000E+01
     38.892  0.3811E-05  0.5000E+01
     39.019  0.3474E-02  0.5000E+01
     39.147  0.1601E+00  0.5021E+01
     39.275  0.4944E+00  0.5084E+01
     39.403  0.1229E+00  0.5100E+01
     39.530  0.1981E-02  0.5100E+01
     39.658  0.1581E-05  0.5100E+01
     39.786  0.5484E-10  0.5100E+01
     39.913  0.8692E-16  0.5100E+01
     40.041  0.0000E+00  0.5100E+01
     40.169  0.0000E+00  0.5100E+01
     40.297  0.0000E+00  0.5100E+01
     40.424  0.0000E+00  0.5100E+01
     40.552  0.0000E+00  0.5100E+01
     40.680  0.0000E+00  0.5100E+01
     40.808  0.0000E+00  0.5100E+01
     40.935  0.0000E+00  0.5100E+01
     41.063  0.0000E+00  0.5100E+01
     41.191  0.4346E-16  0.5100E+01
     41.319  0.2713E-10  0.5100E+01
     41.446  0.9429E-06  0.5100E+01
     41.574  0.1417E-02  0.5100E+01
     41.702  0.1043E+00  0.5114E+01
     41.830  0.4886E+00  0.5176E+01
     41.957  0.1838E+00  0.5199E+01
     42.085  0.4718E-02  0.5200E+01
     42.213  0.6203E-05  0.5200E+01
     42.340  0.3594E-09  0.5200E+01
     42.468  0.8692E-15  0.5200E+01
     42.596  0.0000E+00  0.5200E+01
     42.724  0.0000E+00  0.5200E+01
     42.851  0.0000E+00  0.5200E+01
     42.979  0.0000E+00  0.5200E+01
     43.107  0.0000E+00  0.5200E+01
     43.235  0.0000E+00  0.5200E+01
     43.362  0.0000E+00  0.5200E+01
     43.490  0.0000E+00  0.5200E+01
     43.618  0.0000E+00  0.5200E+01
     43.746  0.0000E+00  0.5200E+01
     43.873  0.0000E+00  0.5200E+01
     44.001  0.1722E-10  0.5200E+01
     44.129  0.6743E-06  0.5200E+01
     44.256  0.1139E-02  0.5200E+01
     44.384  0.9349E-01  0.5212E+01
     44.512  0.4828E+00  0.5274E+01
     44.640  0.1997E+00  0.5299E+01
     44.767  0.5704E-02  0.5300E+01
     44.895  0.8414E-05  0.5300E+01
     45.023  0.5490E-09  0.5300E+01
     45.151  0.1478E-14  0.5300E+01
     45.278  0.0000E+00  0.5300E+01
     45.406  0.0000E+00  0.5300E+01
     45.534  0.0000E+00  0.5300E+01
     45.662  0.0000E+00  0.5300E+01
     45.789  0.0000E+00  0.5300E+01
     45.917  0.0000E+00  0.5300E+01
     46.045  0.0000E+00  0.5300E+01
     46.173  0.0000E+00  0.5300E+01
     46.300  0.0000E+00  0.5300E+01
     46.428  0.0000E+00  0.5300E+01
     46.556  0.0000E+00  0.5300E+01
     46.683  0.0000E+00  0.5300E+01
     46.811  0.8769E-12  0.5300E+01
     46.939  0.7304E-07  0.5300E+01
     47.067  0.2582E-03  0.5300E+01
     47.194  0.4270E-01  0.5305E+01
     47.322  0.4127E+00  0.5358E+01
     47.450  0.3100E+00  0.5398E+01
     47.578  0.1719E-01  0.5400E+01
     47.705  0.5222E-04  0.5400E+01
     47.833  0.7198E-08  0.5400E+01
     47.961  0.4155E-13  0.5400E+01
     48.089  0.0000E+00  0.5400E+01
     48.216  0.0000E+00  0.5400E+01
     48.344  0.0000E+00  0.5400E+01
     48.472  0.0000E+00  0.5400E+01
     48.599  0.0000E+00  0.5400E+01
     48.727  0.0000E+00  0.5400E+01
     48.855  0.0000E+00  0.5400E+01
     48.983  0.0000E+00  0.5400E+01
     49.110  0.0000E+00  0.5400E+01
     49.238  0.0000E+00  0.5400E+01
     49.366  0.0000E+00  0.5400E+01
     49.494  0.0000E+00  0.5400E+01
     49.621  0.1738E-15  0.5400E+01
     49.749  0.9622E-10  0.5400E+01
     49.877  0.2385E-05  0.5400E+01
     50.005  0.2579E-02  0.5400E+01
     50.132  0.1394E+00  0.5418E+01
     50.260  0.4960E+00  0.5481E+01
     50.388  0.1422E+00  0.5500E+01
     50.516  0.2690E-02  0.5500E+01
     50.643  0.2548E-05  0.5500E+01
     50.771  0.1054E-09  0.5500E+01
     50.899  0.1738E-15  0.5500E+01
     51.026  0.0000E+00  0.5500E+01
     51.154  0.0000E+00  0.5500E+01
     51.282  0.0000E+00  0.5500E+01
     51.410  0.0000E+00  0.5500E+01
     51.537  0.0000E+00  0.5500E+01
     51.665  0.0000E+00  0.5500E+01
     51.793  0.0000E+00  0.5500E+01
     51.921  0.0000E+00  0.5500E+01
     52.048  0.0000E+00  0.5500E+01
     52.176  0.0000E+00  0.5500E+01
     52.304  0.0000E+00  0.5500E+01
     52.432  0.0000E+00  0.5500E+01
     52.559  0.4520E-14  0.5500E+01
     52.687  0.1303E-08  0.5500E+01
     52.815  0.1562E-04  0.5500E+01
     52.942  0.8344E-02  0.5501E+01
     53.070  0.2345E+00  0.5531E+01
     53.198  0.4657E+00  0.5591E+01
     53.326  0.7357E-01  0.5600E+01
     53.453  0.7130E-03  0.5600E+01
     53.581  0.3316E-06  0.5600E+01
     53.709  0.6612E-11  0.5600E+01
     53.837  0.0000E+00  0.5600E+01
     53.964  0.0000E+00  0.5600E+01
     54.092  0.0000E+00  0.5600E+01
     54.220  0.0000E+00  0.5600E+01
     54.348  0.0000E+00  0.5600E+01
     54.475  0.0000E+00  0.5600E+01
     54.603  0.0000E+00  0.5600E+01
     54.731  0.0000E+00  0.5600E+01
     54.859  0.0000E+00  0.5600E+01
     54.986  0.0000E+00  0.5600E+01
     55.114  0.0000E+00  0.5600E+01
     55.242  0.0000E+00  0.5600E+01
     55.369  0.0000E+00  0.5600E+01
     55.497  0.4346E-16  0.5600E+01
     55.625  0.3712E-10  0.5600E+01
     55.753  0.1187E-05  0.5600E+01
     55.880  0.1646E-02  0.5600E+01
     56.008  0.1123E+00  0.5615E+01
     56.136  0.4917E+00  0.5677E+01
     56.264  0.1731E+00  0.5699E+01
     56.391  0.4124E-02  0.5700E+01
     56.519  0.5005E-05  0.5700E+01
     56.647  0.2670E-09  0.5700E+01
     56.775  0.6084E-15  0.5700E+01
     56.902  0.0000E+00  0.5700E+01
     57.030  0.0000E+00  0.5700E+01
     57.158  0.0000E+00  0.5700E+01
     57.285  0.0000E+00  0.5700E+01
     57.413  0.0000E+00  0.5700E+01
     57.541  0.0000E+00  0.5700E+01
     57.669  0.0000E+00  0.5700E+01
     57.796  0.0000E+00  0.5700E+01
     57.924  0.0000E+00  0.5700E+01
     58.052  0.0000E+00  0.5700E+01
     58.180  0.0000E+00  0.5700E+01
     58.307  0.0000E+00  0.5700E+01
     58.435  0.2173E-15  0.5700E+01
     58.563  0.1291E-09  0.5700E+01
     58.691  0.2955E-05  0.5700E+01
     58.818  0.2956E-02  0.5700E+01
     58.946  0.1486E+00  0.5719E+01
     59.074  0.4957E+00  0.5783E+01
     59.202  0.1332E+00  0.5800E+01
     59.329  0.2343E-02  0.5800E+01
     59.457  0.2053E-05  0.5800E+01
     59.585  0.7838E-10  0.5800E+01
     59.712  0.1738E-15  0.5800E+01
     59.840  0.0000E+00  0.5800E+01
     59.968  0.0000E+00  0.5800E+01
     60.096  0.0000E+00  0.5800E+01
     60.223  0.0000E+00  0.5800E+01
     60.351  0.0000E+00  0.5800E+01
     60.479  0.0000E+00  0.5800E+01
     60.607  0.0000E+00  0.5800E+01
     60.734  0.0000E+00  0.5800E+01
     60.862  0.0000E+00  0.5800E+01
     60.990  0.0000E+00  0.5800E+01
     61.118  0.0000E+00  0.5800E+01
     61.245  0.4563E-14  0.5800E+01
     61.373  0.1309E-08  0.5800E+01
     61.501  0.1567E-04  0.5800E+01
     61.629  0.8362E-02  0.5801E+01
     61.756  0.2347E+00  0.5831E+01
     61.884  0.4656E+00  0.5891E+01
     62.012  0.7346E-01  0.5900E+01
     62.139  0.7111E-03  0.5900E+01
     62.267  0.3302E-06  0.5900E+01
     62.395  0.6575E-11  0.5900E+01
     62.523  0.0000E+00  0.5900E+01
     62.650  0.0000E+00  0.5900E+01
     62.778  0.0000E+00  0.5900E+01
     62.906  0.0000E+00  0.5900E+01
     63.034  0.0000E+00  0.5900E+01
     63.161  0.0000E+00  0.5900E+01
     63.289  0.0000E+00  0.5900E+01
     63.417  0.0000E+00  0.5900E+01
     63.545  0.0000E+00  0.5900E+01
     63.672  0.1186E-13  0.5900E+01
     63.800  0.2748E-08  0.5900E+01
     63.928  0.2652E-04  0.5900E+01
     64.055  0.1150E-01  0.5901E+01
     64.183  0.2666E+00  0.5936E+01
     64.311  0.4455E+00  0.5992E+01
     64.439  0.5871E-01  0.6000E+01
     64.566  0.4647E-03  0.6000E+01
     64.694  0.1745E-06  0.6000E+01
     64.822  0.2797E-11  0.6000E+01
     64.950  0.0000E+00  0.6000E+01
     65.077  0.0000E+00  0.6000E+01
     65.205  0.0000E+00  0.6000E+01
     65.333  0.1651E-14  0.6000E+01
     65.461  0.5957E-09  0.6000E+01
     65.588  0.8922E-05  0.6000E+01
     65.716  0.5915E-02  0.6001E+01
     65.844  0.2029E+00  0.6027E+01
     65.972  0.4815E+00  0.6088E+01
     66.099  0.9149E-01  0.6100E+01
     66.227  0.1091E-02  0.6100E+01
     66.355  0.6315E-06  0.6100E+01
     66.482  0.1576E-10  0.6100E+01
     66.610  0.0000E+00  0.6100E+01
     66.738  0.0000E+00  0.6100E+01
     66.866  0.0000E+00  0.6100E+01
     66.993  0.0000E+00  0.6100E+01
     67.121  0.0000E+00  0.6100E+01
     67.249  0.0000E+00  0.6100E+01
     67.377  0.0000E+00  0.6100E+01
     67.504  0.0000E+00  0.6100E+01
     67.632  0.0000E+00  0.6100E+01
     67.760  0.0000E+00  0.6100E+01
     67.888  0.0000E+00  0.6100E+01
     68.015  0.0000E+00  0.6100E+01
     68.143  0.0000E+00  0.6100E+01
     68.271  0.0000E+00  0.6100E+01
     68.398  0.0000E+00  0.6100E+01
     68.526  0.0000E+00  0.6100E+01
     68.654  0.0000E+00  0.6100E+01
     68.782  0.0000E+00  0.6100E+01
     68.909  0.0000E+00  0.6100E+01
     69.037  0.0000E+00  0.6100E+01
     69.165  0.0000E+00  0.6100E+01
     69.293  0.0000E+00  0.6100E+01
     69.420  0.0000E+00  0.6100E+01
     69.548  0.0000E+00  0.6100E+01
     69.676  0.0000E+00  0.6100E+01
     69.804  0.0000E+00  0.6100E+01
     69.931  0.0000E+00  0.6100E+01
     70.059  0.0000E+00  0.6100E+01
     70.187  0.0000E+00  0.6100E+01
     70.315  0.0000E+00  0.6100E+01
     70.442  0.0000E+00  0.6100E+01
     70.570  0.0000E+00  0.6100E+01
     70.698  0.0000E+00  0.6100E+01
     70.825  0.0000E+00  0.6100E+01
     70.953  0.0000E+00  0.6100E+01
     71.081  0.0000E+00  0.6100E+01
     71.209  0.0000E+00  0.6100E+01
     71.336  0.0000E+00  0.6100E+01
     71.464  0.0000E+00  0.6100E+01
     71.592  0.0000E+00  0.6100E+01
     71.720  0.0000E+00  0.6100E+01
     71.847  0.0000E+00  0.6100E+01
     71.975  0.0000E+00  0.6100E+01
     72.103  0.0000E+00  0.6100E+01
     72.231  0.0000E+00  0.6100E+01
     72.358  0.0000E+00  0.6100E+01
     72.486  0.0000E+00  0.6100E+01
     72.614  0.0000E+00  0.6100E+01
     72.741  0.0000E+00  0.6100E+01
     72.869  0.0000E+00  0.6100E+01
     72.997  0.0000E+00  0.6100E+01
     73.125  0.0000E+00  0.6100E+01
     73.252  0.0000E+00  0.6100E+01
     73.380  0.0000E+00  0.6100E+01
     73.508  0.0000E+00  0.6100E+01
     73.636  0.4346E-16  0.6100E+01
     73.763  0.3506E-10  0.6100E+01
     73.891  0.1139E-05  0.6100E+01
     74.019  0.1602E-02  0.6100E+01
     74.147  0.1111E+00  0.6114E+01
     74.274  0.5320E+00  0.6182E+01
     74.402  0.5829E+00  0.6257E+01
     74.530  0.3200E+00  0.6298E+01
     74.658  0.1811E-01  0.6300E+01
     74.785  0.5707E-04  0.6300E+01
     74.913  0.6692E-04  0.6300E+01
     75.041  0.1987E-01  0.6303E+01
     75.168  0.3262E+00  0.6344E+01
     75.296  0.3989E+00  0.6395E+01
     75.424  0.3766E-01  0.6400E+01
     75.552  0.2057E-03  0.6400E+01
     75.679  0.3263E-04  0.6400E+01
     75.807  0.1300E-01  0.6402E+01
     75.935  0.2795E+00  0.6437E+01
     76.063  0.4364E+00  0.6493E+01
     76.190  0.5463E-01  0.6500E+01
     76.318  0.9319E-01  0.6512E+01
     76.446  0.4915E+00  0.6575E+01
     76.574  0.4442E+00  0.6632E+01
     76.701  0.4663E+00  0.6691E+01
     76.829  0.6919E-01  0.6700E+01
     76.957  0.6338E-03  0.6700E+01
     77.084  0.2976E-06  0.6700E+01
     77.212  0.1061E-03  0.6700E+01
     77.340  0.2600E-01  0.6703E+01
     77.468  0.3781E+00  0.6752E+01
     77.595  0.7112E+00  0.6842E+01
     77.723  0.6998E+00  0.6932E+01
     77.851  0.1371E+01  0.7107E+01
     77.979  0.6908E+00  0.7195E+01
     78.106  0.3715E-01  0.7200E+01
     78.234  0.1452E-03  0.7200E+01
     78.362  0.2921E-07  0.7200E+01
     78.490  0.2789E-12  0.7200E+01
     78.617  0.4520E-08  0.7200E+01
     78.745  0.3768E-04  0.7200E+01
     78.873  0.1419E-01  0.7202E+01
     79.001  0.2946E+00  0.7239E+01
     79.128  0.6306E+00  0.7320E+01
     79.256  0.5322E+00  0.7388E+01
     79.384  0.1029E+00  0.7401E+01
     79.511  0.2536E+00  0.7434E+01
     79.639  0.4549E+00  0.7492E+01
     79.767  0.6488E-01  0.7500E+01
     79.895  0.5626E-03  0.7500E+01
     80.022  0.2022E-02  0.7500E+01
     80.150  0.1241E+00  0.7516E+01
     80.278  0.4946E+00  0.7579E+01
     80.406  0.1587E+00  0.7600E+01
     80.533  0.3466E-02  0.7600E+01
     80.661  0.1843E-01  0.7602E+01
     80.789  0.3235E+00  0.7644E+01
     80.917  0.6120E+00  0.7722E+01
     81.044  0.7020E+00  0.7812E+01
     81.172  0.5826E+00  0.7886E+01
     81.300  0.1089E+00  0.7900E+01
     81.427  0.5564E-01  0.7907E+01
     81.555  0.4376E+00  0.7963E+01
     81.683  0.2779E+00  0.7998E+01
     81.811  0.1286E-01  0.8000E+01
     81.938  0.1769E-01  0.8002E+01
     82.066  0.3134E+00  0.8042E+01
     82.194  0.4719E+00  0.8103E+01
     82.322  0.4919E+00  0.8165E+01
     82.449  0.2601E+00  0.8199E+01
     82.577  0.2990E-01  0.8202E+01
     82.705  0.3263E+00  0.8244E+01
     82.833  0.5966E+00  0.8320E+01
     82.960  0.8477E+00  0.8429E+01
     83.088  0.5506E+00  0.8499E+01
     83.216  0.4310E+00  0.8554E+01
     83.344  0.4844E+00  0.8616E+01
     83.471  0.5184E+00  0.8682E+01
     83.599  0.1455E+00  0.8701E+01
     83.727  0.3076E+00  0.8740E+01
     83.854  0.9562E+00  0.8862E+01
     83.982  0.3225E+00  0.8903E+01
     84.110  0.4630E+00  0.8962E+01
     84.238  0.8134E+00  0.9066E+01
     84.365  0.2552E+00  0.9099E+01
     84.493  0.8179E-02  0.9100E+01
     84.621  0.1486E-04  0.9100E+01
     84.749  0.3113E-06  0.9100E+01
     84.876  0.6847E-03  0.9100E+01
     85.004  0.7476E-01  0.9110E+01
     85.132  0.6107E+00  0.9188E+01
     85.260  0.7337E+00  0.9281E+01
     85.387  0.1435E+00  0.9300E+01
     85.515  0.2443E-02  0.9300E+01
     85.643  0.1017E-01  0.9301E+01
     85.771  0.2541E+00  0.9334E+01
     85.898  0.4750E+00  0.9394E+01
     86.026  0.3972E+00  0.9445E+01
     86.154  0.3935E+00  0.9495E+01
     86.281  0.6281E-01  0.9503E+01
     86.409  0.3618E+00  0.9550E+01
     86.537  0.3666E+00  0.9596E+01
     86.665  0.1052E+00  0.9610E+01
     86.792  0.4696E+00  0.9670E+01
     86.920  0.2277E+00  0.9699E+01
     87.048  0.7768E-02  0.9700E+01
     87.176  0.1389E-04  0.9700E+01
     87.303  0.9980E-07  0.9700E+01
     87.431  0.3166E-03  0.9700E+01
     87.559  0.4774E-01  0.9706E+01
     87.687  0.4246E+00  0.9760E+01
     87.814  0.2951E+00  0.9798E+01
     87.942  0.2537E-01  0.9801E+01
     88.070  0.2558E+00  0.9834E+01
     88.197  0.4528E+00  0.9892E+01
     88.325  0.6340E-01  0.9900E+01
     88.453  0.6597E-02  0.9901E+01
     88.581  0.2050E+00  0.9927E+01
     88.708  0.4806E+00  0.9988E+01
     88.836  0.9016E-01  0.1000E+02
     88.964  0.1060E-02  0.1000E+02
     89.092  0.6044E-06  0.1000E+02
     89.219  0.1485E-10  0.1000E+02
     89.347  0.0000E+00  0.1000E+02
     89.475  0.0000E+00  0.1000E+02
     89.603  0.0000E+00  0.1000E+02
     89.730  0.0000E+00  0.1000E+02
     89.858  0.0000E+00  0.1000E+02
     89.986  0.0000E+00  0.1000E+02
     90.114  0.0000E+00  0.1000E+02
     90.241  0.6497E-13  0.1000E+02
     90.369  0.1013E-07  0.1000E+02
     90.497  0.6630E-04  0.1000E+02
     90.624  0.1977E-01  0.1000E+02
     90.752  0.3256E+00  0.1004E+02
     90.880  0.3994E+00  0.1010E+02
     91.008  0.3784E-01  0.1010E+02
     91.135  0.2075E-03  0.1010E+02
     91.263  0.5296E-07  0.1010E+02
     91.391  0.5726E-12  0.1010E+02
     91.519  0.0000E+00  0.1010E+02
     91.646  0.0000E+00  0.1010E+02
     91.774  0.0000E+00  0.1010E+02
     91.902  0.0000E+00  0.1010E+02
     92.030  0.0000E+00  0.1010E+02
     92.157  0.0000E+00  0.1010E+02
     92.285  0.0000E+00  0.1010E+02
     92.413  0.0000E+00  0.1010E+02
     92.540  0.1086E-13  0.1010E+02
     92.668  0.2563E-08  0.1010E+02
     92.796  0.2525E-04  0.1010E+02
     92.924  0.1116E-01  0.1010E+02
     93.051  0.2636E+00  0.1014E+02
     93.179  0.4509E+00  0.1019E+02
     93.307  0.2149E+00  0.1022E+02
     93.435  0.4956E+00  0.1028E+02
     93.562  0.1275E+00  0.1030E+02
     93.690  0.1432E-01  0.1030E+02
     93.818  0.2727E+00  0.1034E+02
     93.946  0.4413E+00  0.1039E+02
     94.073  0.5622E-01  0.1040E+02
     94.201  0.4284E-03  0.1040E+02