    1    1   30    1
  0.2999813E+01  0.1442220E-09  0.1442220E-09  0.1442220E-09  0.5000000E-15
  1.000000000000000E-004
  CAR 
 jump2                                   
    1  220    4
 
  0.3742002E-15  0.3742002E-15  0.3742002E-15  0.1457938E-03
   1      -13.617069
   2       50.295194
   3       61.773862
   4       61.773862
 
  0.5263158E-01  0.3742002E-15  0.3742002E-15  0.8747631E-03
   1      -13.421338
   2       48.683866
   3       57.961975
   4       61.974979
 
  0.1052632E+00  0.3742002E-15  0.3742002E-15  0.8747631E-03
   1      -12.834978
   2       44.001579
   3       56.585364
   4       62.578037
 
  0.1578947E+00  0.3742002E-15  0.3742002E-15  0.8747631E-03
   1      -11.864723
   2       38.124988
   3       56.922337
   4       63.580545
 
  0.2105263E+00  0.3742002E-15  0.3742002E-15  0.8747631E-03
   1      -10.509786
   2       32.269250
   3       57.969106
   4       64.983206
 
  0.2631579E+00  0.3742002E-15  0.3742002E-15  0.8747631E-03
   1       -8.784533
   2       26.686221
   3       59.460832
   4       66.780451
 
  0.3157895E+00  0.3742002E-15  0.3742002E-15  0.8747631E-03
   1       -6.719993
   2       21.478843
   3       61.242846
   4       68.951507
 
  0.3684211E+00  0.3742002E-15  0.3742002E-15  0.8747631E-03
   1       -4.360542
   2       16.759761
   3       63.245156
   4       71.494407
 
  0.4210526E+00  0.3742002E-15  0.3742002E-15  0.8747631E-03
   1       -1.885802
   2       12.685101
   3       65.160509
   4       74.316243
 
  0.4736842E+00  0.3742002E-15  0.3742002E-15  0.8747631E-03
   1        0.118639
   2        9.889435
   3       66.488478
   4       76.982003
 
  0.5263158E-01  0.5263158E-01  0.3742002E-15  0.1749526E-02
   1      -13.225633
   2       47.756205
   3       55.405421
   4       60.570503
 
  0.1052632E+00  0.5263158E-01  0.3742002E-15  0.3499052E-02
   1      -12.640789
   2       43.905649
   3       53.460583
   4       60.930841
 
  0.1578947E+00  0.5263158E-01  0.3742002E-15  0.3499052E-02
   1      -11.667747
   2       38.259053
   3       53.674038
   4       61.864779
 
  0.2105263E+00  0.5263158E-01  0.3742002E-15  0.3499052E-02
   1      -10.316151
   2       32.434717
   3       54.726744
   4       63.211863
 
  0.2631579E+00  0.5263158E-01  0.3742002E-15  0.3499052E-02
   1       -8.591422
   2       26.867821
   3       56.280413
   4       64.945408
 
  0.3157895E+00  0.5263158E-01  0.3742002E-15  0.3499052E-02
   1       -6.524183
   2       21.672560
   3       58.191212
   4       67.027009
 
  0.3684211E+00  0.5263158E-01  0.3742002E-15  0.3499052E-02
   1       -4.165355
   2       16.956988
   3       60.360573
   4       69.426417
 
  0.4210526E+00  0.5263158E-01  0.3742002E-15  0.3499052E-02
   1       -1.688104
   2       12.891291
   3       62.537510
   4       72.000023
 
  0.4736842E+00  0.5263158E-01  0.3742002E-15  0.3499052E-02
   1        0.308069
   2       10.090650
   3       64.131481
   4       74.353443
 
  0.1052632E+00  0.1052632E+00  0.3742002E-15  0.1749526E-02
   1      -12.056410
   2       42.778897
   3       48.945329
   4       61.130383
 
  0.1578947E+00  0.1052632E+00  0.3742002E-15  0.3499052E-02
   1      -11.083982
   2       38.486188
   3       47.853935
   4       62.006544
 
  0.2105263E+00  0.1052632E+00  0.3742002E-15  0.3499052E-02
   1       -9.731593
   2       32.915926
   3       48.709678
   4       63.307889
 
  0.2631579E+00  0.1052632E+00  0.3742002E-15  0.3499052E-02
   1       -8.005260
   2       27.415570
   3       50.251707
   4       64.986615
 
  0.3157895E+00  0.1052632E+00  0.3742002E-15  0.3499052E-02
   1       -5.939723
   2       22.244953
   3       52.223252
   4       66.953621
 
  0.3684211E+00  0.1052632E+00  0.3742002E-15  0.3499052E-02
   1       -3.586495
   2       17.533297
   3       54.507621
   4       69.054462
 
  0.4210526E+00  0.1052632E+00  0.3742002E-15  0.3499052E-02
   1       -1.111363
   2       13.485209
   3       56.916545
   4       70.093847
 
  0.4736842E+00  0.1052632E+00  0.3742002E-15  0.3499052E-02
   1        0.887191
   2       10.698460
   3       58.839818
   4       68.507156
 
  0.1578947E+00  0.1578947E+00  0.3742002E-15  0.1749526E-02
   1      -10.112449
   2       37.706514
   3       43.265885
   4       62.853922
 
  0.2105263E+00  0.1578947E+00  0.3742002E-15  0.3499052E-02
   1       -8.759759
   2       33.558440
   3       42.725189
   4       64.122606
 
  0.2631579E+00  0.1578947E+00  0.3742002E-15  0.3499052E-02
   1       -7.039832
   2       28.285753
   3       44.047125
   4       65.723806
 
  0.3157895E+00  0.1578947E+00  0.3742002E-15  0.3499052E-02
   1       -4.977597
   2       23.182755
   3       45.985040
   4       67.441358
 
  0.3684211E+00  0.1578947E+00  0.3742002E-15  0.3499052E-02
   1       -2.626294
   2       18.501238
   3       48.322094
   4       67.723798
 
  0.4210526E+00  0.1578947E+00  0.3742002E-15  0.3499052E-02
   1       -0.160114
   2       14.472374
   3       50.816650
   4       64.646509
 
  0.4736842E+00  0.1578947E+00  0.3742002E-15  0.3499052E-02
   1        1.834515
   2       11.703827
   3       52.893766
   4       61.926911
 
  0.2105263E+00  0.2105263E+00  0.3742002E-15  0.1749526E-02
   1       -7.409218
   2       33.201696
   3       38.404000
   4       65.325526
 
  0.2631579E+00  0.2105263E+00  0.3742002E-15  0.3499052E-02
   1       -5.692471
   2       29.330931
   3       38.338194
   4       66.680446
 
  0.3157895E+00  0.2105263E+00  0.3742002E-15  0.3499052E-02
   1       -3.634252
   2       24.448593
   3       40.070258
   4       66.431939
 
  0.3684211E+00  0.2105263E+00  0.3742002E-15  0.3499052E-02
   1       -1.296202
   2       19.839047
   3       42.350909
   4       62.610470
 
  0.4210526E+00  0.2105263E+00  0.3742002E-15  0.3499052E-02
   1        1.155378
   2       15.847243
   3       44.872581
   4       58.615543
 
  0.4736842E+00  0.2105263E+00  0.3742002E-15  0.3499052E-02
   1        3.123204
   2       13.107940
   3       47.004001
   4       55.685193
 
  0.2631579E+00  0.2631579E+00  0.3742002E-15  0.1749526E-02
   1       -3.977044
   2       29.416355
   3       34.351328
   4       66.030767
 
  0.3157895E+00  0.2631579E+00  0.3742002E-15  0.3499052E-02
   1       -1.931236
   2       25.898319
   3       34.714732
   4       61.661148
 
  0.3684211E+00  0.2631579E+00  0.3742002E-15  0.3499052E-02
   1        0.393392
   2       21.510577
   3       36.804897
   4       57.011934
 
  0.4210526E+00  0.2631579E+00  0.3742002E-15  0.3499052E-02
   1        2.831837
   2       17.596877
   3       39.304882
   4       52.860085
 
  0.4736842E+00  0.2631579E+00  0.3742002E-15  0.3499052E-02
   1        4.759610
   2       14.909719
   3       41.500272
   4       49.844573
 
  0.3157895E+00  0.3157895E+00  0.3742002E-15  0.1749526E-02
   1        0.111145
   2       26.423265
   3       31.106428
   4       56.522318
 
  0.3684211E+00  0.3157895E+00  0.3742002E-15  0.3499052E-02
   1        2.427699
   2       23.389605
   3       31.878397
   4       51.734394
 
  0.4210526E+00  0.3157895E+00  0.3742002E-15  0.3499052E-02
   1        4.816183
   2       19.694878
   3       34.222687
   4       47.509794
 
  0.4736842E+00  0.3157895E+00  0.3742002E-15  0.3499052E-02
   1        6.693062
   2       17.101967
   3       36.441026
   4       44.416093
 
  0.3684211E+00  0.3684211E+00  0.3742002E-15  0.1749526E-02
   1        4.706549
   2       24.407859
   3       28.674281
   4       46.885983
 
  0.4210526E+00  0.3684211E+00  0.3742002E-15  0.3499052E-02
   1        7.034416
   2       22.027350
   3       29.796549
   4       42.604271
 
  0.4736842E+00  0.3684211E+00  0.3742002E-15  0.3499052E-02
   1        8.830220
   2       19.667351
   3       31.949482
   4       39.418775
 
  0.4210526E+00  0.4210526E+00  0.3742002E-15  0.1749526E-02
   1        9.287456
   2       23.705332
   3       27.052810
   4       38.246232
 
  0.4736842E+00  0.4210526E+00  0.3742002E-15  0.3499052E-02
   1       10.942558
   2       22.542417
   3       28.277690
   4       34.907192
 
  0.4736842E+00  0.4736842E+00  0.3742002E-15  0.1749526E-02
   1       12.473577
   2       25.163179
   3       26.242067
   4       31.214917
 
  0.5263158E-01  0.5263158E-01  0.5263158E-01  0.1166351E-02
   1      -13.029955
   2       47.081166
   3       55.606887
   4       55.606887
 
  0.1052632E+00  0.5263158E-01  0.5263158E-01  0.3499052E-02
   1      -12.446645
   2       43.805853
   3       52.749381
   4       56.210412
 
  0.1578947E+00  0.5263158E-01  0.5263158E-01  0.3499052E-02
   1      -11.470806
   2       38.390920
   3       52.675081
   4       57.216532
 
  0.2105263E+00  0.5263158E-01  0.5263158E-01  0.3499052E-02
   1      -10.122548
   2       32.599572
   3       53.637620
   4       58.615788
 
  0.2631579E+00  0.5263158E-01  0.5263158E-01  0.3499052E-02
   1       -8.398347
   2       27.049202
   3       55.151379
   4       60.419358
 
  0.3157895E+00  0.5263158E-01  0.5263158E-01  0.3499052E-02
   1       -6.328401
   2       21.866211
   3       57.044460
   4       62.613608
 
  0.3684211E+00  0.5263158E-01  0.5263158E-01  0.3499052E-02
   1       -3.971629
   2       17.149814
   3       59.187214
   4       65.181418
 
  0.4210526E+00  0.5263158E-01  0.5263158E-01  0.3499052E-02
   1       -1.492091
   2       13.094422
   3       61.354759
   4       68.064110
 
  0.4736842E+00  0.5263158E-01  0.5263158E-01  0.3499052E-02
   1        0.500581
   2       10.293811
   3       62.925864
   4       70.897579
 
  0.1052632E+00  0.1052632E+00  0.5263158E-01  0.3499052E-02
   1      -11.860900
   2       42.738758
   3       49.146811
   4       55.327272
 
  0.1578947E+00  0.1052632E+00  0.5263158E-01  0.6998105E-02
   1      -10.887120
   2       38.610001
   3       47.948089
   4       56.136724
 
  0.2105263E+00  0.1052632E+00  0.5263158E-01  0.6998105E-02
   1       -9.538090
   2       33.078678
   3       48.742306
   4       57.455914
 
  0.2631579E+00  0.1052632E+00  0.5263158E-01  0.6998105E-02
   1       -7.812293
   2       27.596263
   3       50.255048
   4       59.200879
 
  0.3157895E+00  0.1052632E+00  0.5263158E-01  0.6998105E-02
   1       -5.744031
   2       22.438367
   3       52.206604
   4       61.322763
 
  0.3684211E+00  0.1052632E+00  0.5263158E-01  0.6998105E-02
   1       -3.390098
   2       17.734492
   3       54.464893
   4       63.774133
 
  0.4210526E+00  0.1052632E+00  0.5263158E-01  0.6998105E-02
   1       -0.917407
   2       13.684833
   3       56.825174
   4       66.413116
 
  0.4736842E+00  0.1052632E+00  0.5263158E-01  0.6998105E-02
   1        1.081100
   2       10.898493
   3       58.679648
   4       68.331034
 
  0.1578947E+00  0.1578947E+00  0.5263158E-01  0.3499052E-02
   1       -9.914215
   2       37.836453
   3       43.473594
   4       56.855343
 
  0.2105263E+00  0.1578947E+00  0.5263158E-01  0.6998105E-02
   1       -8.564899
   2       33.718897
   3       42.904316
   4       58.129250
 
  0.2631579E+00  0.1578947E+00  0.5263158E-01  0.6998105E-02
   1       -6.845499
   2       28.466304
   3       44.209159
   4       59.828553
 
  0.3157895E+00  0.1578947E+00  0.5263158E-01  0.6998105E-02
   1       -4.781721
   2       23.371212
   3       46.137021
   4       61.875852
 
  0.3684211E+00  0.1578947E+00  0.5263158E-01  0.6998105E-02
   1       -2.433415
   2       18.697429
   3       48.440458
   4       64.096693
 
  0.4210526E+00  0.1578947E+00  0.5263158E-01  0.6998105E-02
   1        0.031466
   2       14.671617
   3       50.917219
   4       64.471854
 
  0.4736842E+00  0.1578947E+00  0.5263158E-01  0.6998105E-02
   1        2.021628
   2       11.905247
   3       52.981026
   4       62.105179
 
  0.2105263E+00  0.2105263E+00  0.5263158E-01  0.3499052E-02
   1       -7.217841
   2       33.351627
   3       38.604778
   4       59.370840
 
  0.2631579E+00  0.2105263E+00  0.5263158E-01  0.6998105E-02
   1       -5.501710
   2       29.504625
   3       38.523225
   4       61.016380
 
  0.3157895E+00  0.2105263E+00  0.5263158E-01  0.6998105E-02
   1       -3.441490
   2       24.640240
   3       40.249485
   4       62.857847
 
  0.3684211E+00  0.2105263E+00  0.5263158E-01  0.6998105E-02
   1       -1.101713
   2       20.035469
   3       42.524450
   4       62.455269
 
  0.4210526E+00  0.2105263E+00  0.5263158E-01  0.6998105E-02
   1        1.351834
   2       16.045549
   3       45.030315
   4       58.760947
 
  0.4736842E+00  0.2105263E+00  0.5263158E-01  0.6998105E-02
   1        3.319530
   2       13.309983
   3       47.182217
   4       55.882817
 
  0.2631579E+00  0.2631579E+00  0.5263158E-01  0.3499052E-02
   1       -3.789355
   2       29.572066
   3       34.550920
   4       62.439043
 
  0.3157895E+00  0.2631579E+00  0.5263158E-01  0.6998105E-02
   1       -1.740967
   2       26.083455
   3       34.909160
   4       61.515354
 
  0.3684211E+00  0.2631579E+00  0.5263158E-01  0.6998105E-02
   1        0.591625
   2       21.707423
   3       36.995692
   4       57.166811
 
  0.4210526E+00  0.2631579E+00  0.5263158E-01  0.6998105E-02
   1        3.024581
   2       17.795989
   3       39.488347
   4       53.045392
 
  0.4736842E+00  0.2631579E+00  0.5263158E-01  0.6998105E-02
   1        4.954626
   2       15.111399
   3       41.678594
   4       50.043474
 
  0.3157895E+00  0.3157895E+00  0.5263158E-01  0.3499052E-02
   1        0.303974
   2       26.601468
   3       31.307145
   4       56.666054
 
  0.3684211E+00  0.3157895E+00  0.5263158E-01  0.6998105E-02
   1        2.613912
   2       23.577478
   3       32.071772
   4       51.914429
 
  0.4210526E+00  0.3157895E+00  0.5263158E-01  0.6998105E-02
   1        5.005392
   2       19.893118
   3       34.411526
   4       47.703124
 
  0.4736842E+00  0.3157895E+00  0.5263158E-01  0.6998105E-02
   1        6.884307
   2       17.303577
   3       36.626045
   4       44.616380
 
  0.3684211E+00  0.3684211E+00  0.5263158E-01  0.3499052E-02
   1        4.890762
   2       24.592367
   3       28.874977
   4       47.076502
 
  0.4210526E+00  0.3684211E+00  0.5263158E-01  0.6998105E-02
   1        7.225726
   2       22.224841
   3       29.991890
   4       42.801266
 
  0.4736842E+00  0.3684211E+00  0.5263158E-01  0.6998105E-02
   1        9.016461
   2       19.868440
   3       32.138682
   4       39.619107
 
  0.4210526E+00  0.4210526E+00  0.5263158E-01  0.3499052E-02
   1        9.466112
   2       23.895705
   3       27.253493
   4       38.443485
 
  0.4736842E+00  0.4210526E+00  0.5263158E-01  0.6998105E-02
   1       11.124913
   2       22.743141
   3       28.472834
   4       35.107995
 
  0.4736842E+00  0.4736842E+00  0.5263158E-01  0.3499052E-02
   1       12.641347
   2       25.362286
   3       26.442744
   4       31.416435
 
  0.1052632E+00  0.1052632E+00  0.1052632E+00  0.1166351E-02
   1      -11.281483
   2       42.042857
   3       49.743593
   4       49.743593
 
  0.1578947E+00  0.1052632E+00  0.1052632E+00  0.3499052E-02
   1      -10.306892
   2       38.792142
   3       47.456665
   4       50.749466
 
  0.2105263E+00  0.1052632E+00  0.1052632E+00  0.3499052E-02
   1       -8.957114
   2       33.545919
   3       47.887546
   4       52.155694
 
  0.2631579E+00  0.1052632E+00  0.1052632E+00  0.3499052E-02
   1       -7.229828
   2       28.138493
   3       49.273215
   4       53.960526
 
  0.3157895E+00  0.1052632E+00  0.1052632E+00  0.3499052E-02
   1       -5.164641
   2       23.002661
   3       51.141089
   4       56.155596
 
  0.3684211E+00  0.1052632E+00  0.1052632E+00  0.3499052E-02
   1       -2.808934
   2       18.318751
   3       53.348377
   4       58.728378
 
  0.4210526E+00  0.1052632E+00  0.1052632E+00  0.3499052E-02
   1       -0.338970
   2       14.282426
   3       55.605087
   4       61.615250
 
  0.4736842E+00  0.1052632E+00  0.1052632E+00  0.3499052E-02
   1        1.649657
   2       11.501749
   3       57.316403
   4       64.462438
 
  0.1578947E+00  0.1578947E+00  0.1052632E+00  0.3499052E-02
   1       -9.333164
   2       38.055962
   3       44.076762
   4       50.320441
 
  0.2105263E+00  0.1578947E+00  0.1052632E+00  0.6998105E-02
   1       -7.980381
   2       34.171703
   3       43.354512
   4       51.526804
 
  0.2631579E+00  0.1578947E+00  0.1052632E+00  0.6998105E-02
   1       -6.262191
   2       29.004568
   3       44.572697
   4       53.240455
 
  0.3157895E+00  0.1578947E+00  0.1052632E+00  0.6998105E-02
   1       -4.200371
   2       23.939158
   3       46.451673
   4       55.354432
 
  0.3684211E+00  0.1578947E+00  0.1052632E+00  0.6998105E-02
   1       -1.853602
   2       19.284630
   3       48.708561
   4       57.812224
 
  0.4210526E+00  0.1578947E+00  0.1052632E+00  0.6998105E-02
   1        0.609630
   2       15.265087
   3       51.110992
   4       60.471141
 
  0.4736842E+00  0.1578947E+00  0.1052632E+00  0.6998105E-02
   1        2.581341
   2       12.506185
   3       53.037685
   4       62.339482
 
  0.2105263E+00  0.2105263E+00  0.1052632E+00  0.3499052E-02
   1       -6.632526
   2       33.798545
   3       39.208807
   4       52.638005
 
  0.2631579E+00  0.2105263E+00  0.1052632E+00  0.6998105E-02
   1       -4.918797
   2       30.026332
   3       39.074134
   4       54.294125
 
  0.3157895E+00  0.2105263E+00  0.1052632E+00  0.6998105E-02
   1       -2.860578
   2       25.203447
   3       40.769488
   4       56.334974
 
  0.3684211E+00  0.2105263E+00  0.1052632E+00  0.6998105E-02
   1       -0.517624
   2       20.620683
   3       43.022294
   4       58.583212
 
  0.4210526E+00  0.2105263E+00  0.1052632E+00  0.6998105E-02
   1        1.925382
   2       16.638672
   3       45.502071
   4       58.943302
 
  0.4736842E+00  0.2105263E+00  0.1052632E+00  0.6998105E-02
   1        3.875700
   2       13.912542
   3       47.586329
   4       56.453239
 
  0.2631579E+00  0.2631579E+00  0.1052632E+00  0.3499052E-02
   1       -3.206792
   2       30.088112
   3       35.154855
   4       55.892636
 
  0.3157895E+00  0.2631579E+00  0.1052632E+00  0.6998105E-02
   1       -1.154339
   2       26.647005
   3       35.485427
   4       57.736971
 
  0.3684211E+00  0.2631579E+00  0.1052632E+00  0.6998105E-02
   1        1.168616
   2       22.286784
   3       37.552220
   4       57.353423
 
  0.4210526E+00  0.2631579E+00  0.1052632E+00  0.6998105E-02
   1        3.588517
   2       18.387952
   3       40.028057
   4       53.578576
 
  0.4736842E+00  0.2631579E+00  0.1052632E+00  0.6998105E-02
   1        5.511871
   2       15.714515
   3       42.194155
   4       50.638424
 
  0.3157895E+00  0.3157895E+00  0.1052632E+00  0.3499052E-02
   1        0.885049
   2       27.160804
   3       31.912197
   4       56.873493
 
  0.3684211E+00  0.3157895E+00  0.1052632E+00  0.6998105E-02
   1        3.181471
   2       24.149080
   3       32.655802
   4       52.434572
 
  0.4210526E+00  0.3157895E+00  0.1052632E+00  0.6998105E-02
   1        5.572013
   2       20.482555
   3       34.980177
   4       48.275618
 
  0.4736842E+00  0.3157895E+00  0.1052632E+00  0.6998105E-02
   1        7.437390
   2       17.906107
   3       37.176422
   4       45.214849
 
  0.3684211E+00  0.3684211E+00  0.1052632E+00  0.3499052E-02
   1        5.459471
   2       25.155803
   3       29.478886
   4       47.645107
 
  0.4210526E+00  0.3684211E+00  0.1052632E+00  0.6998105E-02
   1        7.782918
   2       22.810196
   3       30.579747
   4       43.388087
 
  0.4736842E+00  0.3684211E+00  0.1052632E+00  0.6998105E-02
   1        9.566262
   2       20.470992
   3       32.714120
   4       40.220862
 
  0.4210526E+00  0.4210526E+00  0.1052632E+00  0.3499052E-02
   1       10.017384
   2       24.478740
   3       27.857382
   4       39.039476
 
  0.4736842E+00  0.4210526E+00  0.1052632E+00  0.6998105E-02
   1       11.666067
   2       23.345009
   3       29.064828
   4       35.711401
 
  0.4736842E+00  0.4736842E+00  0.1052632E+00  0.3499052E-02
   1       13.172962
   2       25.963387
   3       27.046621
   4       32.021924
 
  0.1578947E+00  0.1578947E+00  0.1578947E+00  0.1166351E-02
   1       -8.360328
   2       37.729418
   3       45.082582
   4       45.082582
 
  0.2105263E+00  0.1578947E+00  0.1578947E+00  0.3499052E-02
   1       -7.009984
   2       34.755139
   3       43.254940
   4       46.488966
 
  0.2631579E+00  0.1578947E+00  0.1578947E+00  0.3499052E-02
   1       -5.296752
   2       29.853212
   3       44.102227
   4       48.292760
 
  0.3157895E+00  0.1578947E+00  0.1578947E+00  0.3499052E-02
   1       -3.237268
   2       24.871938
   3       45.837177
   4       50.487919
 
  0.3684211E+00  0.1578947E+00  0.1578947E+00  0.3499052E-02
   1       -0.891128
   2       20.250152
   3       47.985203
   4       53.057733
 
  0.4210526E+00  0.1578947E+00  0.1578947E+00  0.3499052E-02
   1        1.556311
   2       16.253007
   3       50.234948
   4       55.943568
 
  0.4736842E+00  0.1578947E+00  0.1578947E+00  0.3499052E-02
   1        3.510305
   2       13.510489
   3       51.983309
   4       58.791921
 
  0.2105263E+00  0.2105263E+00  0.1578947E+00  0.3499052E-02
   1       -5.661907
   2       34.406349
   3       40.220876
   4       46.474881
 
  0.2631579E+00  0.2105263E+00  0.1578947E+00  0.6998105E-02
   1       -3.951473
   2       30.865977
   3       39.918787
   4       48.069175
 
  0.3157895E+00  0.2105263E+00  0.1578947E+00  0.6998105E-02
   1       -1.895869
   2       26.126763
   3       41.506996
   4       50.149964
 
  0.3684211E+00  0.2105263E+00  0.1578947E+00  0.6998105E-02
   1        0.436017
   2       21.581424
   3       43.691229
   4       52.597870
 
  0.4210526E+00  0.2105263E+00  0.1578947E+00  0.6998105E-02
   1        2.868856
   2       17.622885
   3       46.085406
   4       55.256335
 
  0.4736842E+00  0.2105263E+00  0.1578947E+00  0.6998105E-02
   1        4.806340
   2       14.917135
   3       48.046672
   4       57.103468
 
  0.2631579E+00  0.2631579E+00  0.1578947E+00  0.3499052E-02
   1       -2.240869
   2       30.897432
   3       36.160733
   4       49.551774
 
  0.3157895E+00  0.2631579E+00  0.1578947E+00  0.6998105E-02
   1       -0.197494
   2       27.553699
   3       36.424538
   4       51.549840
 
  0.3684211E+00  0.2631579E+00  0.1578947E+00  0.6998105E-02
   1        2.120731
   2       23.247388
   3       38.446757
   4       53.792982
 
  0.4210526E+00  0.2631579E+00  0.1578947E+00  0.6998105E-02
   1        4.532357
   2       19.371871
   3       40.893930
   4       54.163076
 
  0.4736842E+00  0.2631579E+00  0.1578947E+00  0.6998105E-02
   1        6.435877
   2       16.718577
   3       43.002699
   4       51.610635
 
  0.3157895E+00  0.3157895E+00  0.1578947E+00  0.3499052E-02
   1        1.837439
   2       28.048410
   3       32.918009
   4       53.357102
 
  0.3684211E+00  0.3157895E+00  0.1578947E+00  0.6998105E-02
   1        4.130215
   2       25.098453
   3       33.626500
   4       53.022672
 
  0.4210526E+00  0.3157895E+00  0.1578947E+00  0.6998105E-02
   1        6.504460
   2       21.464672
   3       35.922165
   4       49.207208
 
  0.4736842E+00  0.3157895E+00  0.1578947E+00  0.6998105E-02
   1        8.357445
   2       18.910159
   3       38.079603
   4       46.209278
 
  0.3684211E+00  0.3684211E+00  0.1578947E+00  0.3499052E-02
   1        6.393323
   2       26.088530
   3       30.484694
   4       48.563029
 
  0.4210526E+00  0.3684211E+00  0.1578947E+00  0.6998105E-02
   1        8.709712
   2       23.784776
   3       31.557088
   4       44.360150
 
  0.4736842E+00  0.3684211E+00  0.1578947E+00  0.6998105E-02
   1       10.476032
   2       21.474438
   3       33.665936
   4       41.222050
 
  0.4210526E+00  0.4210526E+00  0.1578947E+00  0.3499052E-02
   1       10.929706
   2       25.446774
   3       28.863154
   4       40.029567
 
  0.4736842E+00  0.4210526E+00  0.1578947E+00  0.6998105E-02
   1       12.560533
   2       24.347206
   3       30.048821
   4       36.716130
 
  0.4736842E+00  0.4736842E+00  0.1578947E+00  0.3499052E-02
   1       14.050647
   2       26.964200
   3       28.052376
   4       33.030619
 
  0.2105263E+00  0.2105263E+00  0.2105263E+00  0.1166351E-02
   1       -4.319650
   2       34.429369
   3       41.625956
   4       41.625956
 
  0.2631579E+00  0.2105263E+00  0.2105263E+00  0.3499052E-02
   1       -2.604213
   2       31.830373
   3       40.206370
   4       43.429782
 
  0.3157895E+00  0.2105263E+00  0.2105263E+00  0.3499052E-02
   1       -0.560152
   2       27.371299
   3       41.411026
   4       45.624551
 
  0.3684211E+00  0.2105263E+00  0.2105263E+00  0.3499052E-02
   1        1.762523
   2       22.910856
   3       43.421718
   4       48.194151
 
  0.4210526E+00  0.2105263E+00  0.2105263E+00  0.3499052E-02
   1        4.181950
   2       18.998671
   3       45.656656
   4       51.081404
 
  0.4736842E+00  0.2105263E+00  0.2105263E+00  0.3499052E-02
   1        6.090572
   2       16.319473
   3       47.419931
   4       53.930110
 
  0.2631579E+00  0.2631579E+00  0.2105263E+00  0.3499052E-02
   1       -0.899396
   2       31.876857
   3       37.573235
   4       43.805551
 
  0.3157895E+00  0.2631579E+00  0.2105263E+00  0.6998105E-02
   1        1.135940
   2       28.771595
   3       37.659691
   4       45.770378
 
  0.3684211E+00  0.2631579E+00  0.2105263E+00  0.6998105E-02
   1        3.444416
   2       24.569015
   3       39.564856
   4       48.187891
 
  0.4210526E+00  0.2631579E+00  0.2105263E+00  0.6998105E-02
   1        5.839661
   2       20.745241
   3       41.902342
   4       50.837288
 
  0.4736842E+00  0.2631579E+00  0.2105263E+00  0.6998105E-02
   1        7.716984
   2       18.122729
   3       43.872070
   4       52.670258
 
  0.3157895E+00  0.3157895E+00  0.2105263E+00  0.3499052E-02
   1        3.162121
   2       29.239456
   3       34.324294
   4       47.595045
 
  0.3684211E+00  0.3157895E+00  0.2105263E+00  0.6998105E-02
   1        5.445897
   2       26.406253
   3       34.955455
   4       49.801103
 
  0.4210526E+00  0.3157895E+00  0.2105263E+00  0.6998105E-02
   1        7.800127
   2       22.829247
   3       37.188656
   4       50.195240
 
  0.4736842E+00  0.3157895E+00  0.2105263E+00  0.6998105E-02
   1        9.635022
   2       20.314202
   3       39.300543
   4       47.585604
 
  0.3684211E+00  0.3684211E+00  0.2105263E+00  0.3499052E-02
   1        7.699486
   2       27.381363
   3       31.892067
   4       49.556373
 
  0.4210526E+00  0.3684211E+00  0.2105263E+00  0.6998105E-02
   1        9.991460
   2       25.139432
   3       32.913374
   4       45.685950
 
  0.4736842E+00  0.3684211E+00  0.2105263E+00  0.6998105E-02
   1       11.731162
   2       22.877059
   3       34.976589
   4       42.618119
 
  0.4210526E+00  0.4210526E+00  0.2105263E+00  0.3499052E-02
   1       12.188687
   2       26.791544
   3       30.269365
   4       41.405306
 
  0.4736842E+00  0.4210526E+00  0.2105263E+00  0.6998105E-02
   1       13.791732
   2       25.747778
   3       31.418869
   4       38.120047
 
  0.4736842E+00  0.4736842E+00  0.2105263E+00  0.3499052E-02
   1       15.255876
   2       28.362537
   3       29.458563
   4       34.441568
 
  0.2631579E+00  0.2631579E+00  0.2631579E+00  0.1166351E-02
   1        0.799350
   2       32.303669
   3       39.376925
   4       39.376925
 
  0.3157895E+00  0.2631579E+00  0.2631579E+00  0.3499052E-02
   1        2.830142
   2       30.136294
   3       38.335255
   4       41.571769
 
  0.3684211E+00  0.2631579E+00  0.2631579E+00  0.3499052E-02
   1        5.118562
   2       26.211232
   3       39.828651
   4       44.140988
 
  0.4210526E+00  0.2631579E+00  0.2631579E+00  0.3499052E-02
   1        7.488110
   2       22.487236
   3       41.942096
   4       47.028051
 
  0.4736842E+00  0.2631579E+00  0.2631579E+00  0.3499052E-02
   1        9.325253
   2       19.921328
   3       43.691080
   4       49.876531
 
  0.3157895E+00  0.3157895E+00  0.2631579E+00  0.3499052E-02
   1        4.846299
   2       30.596902
   3       36.134283
   4       42.313440
 
  0.3684211E+00  0.3157895E+00  0.2631579E+00  0.6998105E-02
   1        7.110886
   2       28.017989
   3       36.569960
   4       44.608123
 
  0.4210526E+00  0.3157895E+00  0.2631579E+00  0.6998105E-02
   1        9.440375
   2       24.568266
   3       38.653056
   4       47.226701
 
  0.4736842E+00  0.3157895E+00  0.2631579E+00  0.6998105E-02
   1       11.225892
   2       22.113751
   3       40.597924
   4       49.048780
 
  0.3684211E+00  0.3684211E+00  0.2631579E+00  0.3499052E-02
   1        9.342835
   2       28.963771
   3       33.695795
   4       46.640323
 
  0.4210526E+00  0.3684211E+00  0.2631579E+00  0.6998105E-02
   1       11.600681
   2       26.859561
   3       34.627346
   4       47.080635
 
  0.4736842E+00  0.3684211E+00  0.2631579E+00  0.6998105E-02
   1       13.308050
   2       24.675922
   3       36.607261
   4       44.394982
 
  0.4210526E+00  0.4210526E+00  0.2631579E+00  0.3499052E-02
   1       13.767127
   2       28.495759
   3       32.073077
   4       43.137595
 
  0.4736842E+00  0.4210526E+00  0.2631579E+00  0.6998105E-02
   1       15.328671
   2       27.542769
   3       33.162027
   4       39.917936
 
  0.4736842E+00  0.4736842E+00  0.2631579E+00  0.3499052E-02
   1       16.754357
   2       30.153996
   3       31.262242
   4       36.252763
 
  0.3157895E+00  0.3157895E+00  0.3157895E+00  0.1166351E-02
   1        6.846291
   2       31.422119
   3       38.328975
   4       38.328975
 
  0.3684211E+00  0.3157895E+00  0.3157895E+00  0.3499052E-02
   1        9.084715
   2       29.764781
   3       37.621499
   4       40.898031
 
  0.4210526E+00  0.3157895E+00  0.3157895E+00  0.3499052E-02
   1       11.370869
   2       26.635087