       N       E                     dE             d eps       ncg     rms          rms(c)
DAV:   1    -0.226588478627E+01   -0.22659E+01   -0.12428E+02  2148   0.617E+01
DAV:   2    -0.228570744791E+01   -0.19823E-01   -0.19822E-01  2148   0.299E+00
DAV:   3    -0.228571157761E+01   -0.41297E-05   -0.41295E-05  2036   0.265E-02
DAV:   4    -0.228571157752E+01    0.85539E-10   -0.33647E-10  1848   0.561E-05
DAV:   5    -0.228571157770E+01   -0.17574E-09   -0.12066E-14  1204   0.412E-07    0.268E-01
DAV:   6    -0.228715789906E+01   -0.14463E-02   -0.10705E-04  1996   0.967E-02    0.168E-01
DAV:   7    -0.228810116728E+01   -0.94327E-03   -0.39833E-04  2028   0.180E-01    0.483E-03
DAV:   8    -0.228809937049E+01    0.17968E-05   -0.37814E-07   880   0.546E-03
   1 F= -.22880994E+01 E0= -.22879131E+01  d E =-.228810E+01
       N       E                     dE             d eps       ncg     rms          rms(c)
DAV:   1    -0.228827579950E+01   -0.17463E-03   -0.20969E-04  1768   0.110E-01    0.854E-03
DAV:   2    -0.228827647419E+01   -0.67469E-06   -0.56103E-08   880   0.196E-03
   2 F= -.22882765E+01 E0= -.22880945E+01  d E =-.177104E-03
       N       E                     dE             d eps       ncg     rms          rms(c)
DAV:   1    -0.228842476427E+01   -0.14896E-03   -0.10537E-03  1824   0.249E-01    0.188E-02
DAV:   2    -0.228842718124E+01   -0.24170E-05   -0.24916E-07   916   0.398E-03
   3 F= -.22884272E+01 E0= -.22882548E+01  d E =-.327811E-03
