 vasp.5.2.12 11Nov11 complex                                                    
  
 executed on             LinuxIFC date 2018.01.16  20:02:19
 running on   16 nodes
 distr:  one band on    4 nodes,    4 groups


--------------------------------------------------------------------------------------------------------


 INCAR:
 POTCAR:   PAW_PBE H 15Jun2001                    
 POTCAR:   PAW_PBE H 15Jun2001                    
   VRHFIN =H: ultrasoft test                                                    
   LEXCH  = PE                                                                  
   EATOM  =    12.4884 eV,     .9179 Ry                                         
                                                                                
   TITEL  = PAW_PBE H 15Jun2001                                                 
   LULTRA =        F    use ultrasoft PP ?                                      
   IUNSCR =        0    unscreen: 0-lin 1-nonlin 2-no                           
   RPACOR =     .000    partial core radius                                     
   POMASS =    1.000; ZVAL   =    1.000    mass and valenz                      
   RCORE  =    1.100    outmost cutoff radius                                   
   RWIGS  =     .700; RWIGS  =     .370    wigner-seitz radius (au A)           
   ENMAX  =  250.000; ENMIN  =  200.000 eV                                      
   RCLOC  =     .701    cutoff for local pot                                    
   LCOR   =        T    correct aug charges                                     
   LPAW   =        T    paw PP                                                  
   EAUG   =  400.000                                                            
   RMAX   =    2.174    core radius for proj-oper                               
   RAUG   =    1.200    factor for augmentation sphere                          
   RDEP   =    1.112    radius for radial grids                                 
   QCUT   =   -5.749; QGAM   =   11.498    optimization parameters              
                                                                                
   Description                                                                  
     l     E      TYP  RCUT    TYP  RCUT                                        
     0   .000     23  1.100                                                     
     0   .500     23  1.100                                                     
     1  -.300     23  1.100                                                     
  local pseudopotential read in
  atomic valenz-charges read in
  non local Contribution for L=           0  read in
    real space projection operators read in
  non local Contribution for L=           0  read in
    real space projection operators read in
  non local Contribution for L=           1  read in
    real space projection operators read in
    PAW grid and wavefunctions read in
 
   number of l-projection  operators is LMAX  =           3
   number of lm-projection operators is LMMAX =           5
 

 ----------------------------------------------------------------------------- 
|                                                                             |
|  ADVICE TO THIS USER RUNNING 'VASP/VAMP'   (HEAR YOUR MASTER'S VOICE ...):  |
|                                                                             |
|      You have a (more or less) 'small supercell' and for smaller cells      |
|      it is recommended  to use the reciprocal-space projection scheme!      |
|      The real space optimization is not  efficient for small cells and it   |
|      is also less accurate ...                                              |
|      Therefore set LREAL=.FALSE. in the  INCAR file                         |
|                                                                             |
 ----------------------------------------------------------------------------- 

 Optimization of the real space projectors (new method)

 maximal supplied QI-value         = 34.20
 optimisation between [QCUT,QGAM] = [  9.24, 18.47] = [ 23.88, 95.53] Ry 
 Optimized for a Real-space Cutoff    1.53 Angstroem

   l    n(q)    QCUT    max X(q) W(low)/X(q) W(high)/X(q)  e(spline) 
   0      8     9.235     4.436    0.24E-04    0.90E-05    0.12E-06
   0      8     9.235    16.131    0.15E-03    0.21E-03    0.56E-06
   1      8     9.235     4.623    0.42E-03    0.10E-02    0.60E-06
 PAW_PBE H 15Jun2001                    :
 energy of atom  1       EATOM=  -12.4884
 kinetic energy error for atom=    0.0294 (will be added to EATOM!!)
 
 
 POSCAR: Cs2 Na1 Sb1 Cl6                         
  positions in direct lattice
  No initial velocities read in
 exchange correlation table for  LEXCH =        8
   RHO(1)=    0.500       N(1)  =     2000
   RHO(2)=  100.500       N(2)  =     4000
 


--------------------------------------------------------------------------------------------------------


 ion  position               nearest neighbor table
   1  0.000  0.000  0.000-
 
  LATTYP: Found a simple cubic cell.
 ALAT       =     1.4422196537
  
  Lattice vectors:
  
 A1 = (   1.4422196537,   0.0000000000,   0.0000000000)
 A2 = (   0.0000000000,   1.4422196537,   0.0000000000)
 A3 = (   0.0000000000,   0.0000000000,   1.4422196537)
 Subroutine PRICEL returns:
 Original cell was already a primitive cell.
 

Analysis of symmetry for initial positions (statically):

 Routine SETGRP: Setting up the symmetry group for a 
 simple cubic supercell.


 Subroutine GETGRP returns: Found 48 space group operations
 (whereof 48 operations were pure point group operations)
 out of a pool of 48 trial point group operations.


The static configuration has the point symmetry O_h .

Analysis of symmetry for dynamics (positions and initial velocities):

 Subroutine DYNSYM returns: Found 48 space group operations
 (whereof 48 operations were pure point group operations)
 out of a pool of 48 trial space group operations
 (whereof 48 operations were pure point group operations)
 and found also     1 'primitive' translations


The dynamic configuration has the point symmetry O_h .
 
 

Automatic generation of k-mesh.
 generate k-points for:   19   19   19
 
 Subroutine IBZKPT returns following result:
 ===========================================
 
 Found    220 irreducible k-points:
 
 Following reciprocal coordinates:
            Coordinates               Weight
  0.000000  0.000000  0.000000      1.000000
  0.052632  0.000000  0.000000      6.000000
  0.105263  0.000000  0.000000      6.000000
  0.157895  0.000000  0.000000      6.000000
  0.210526  0.000000  0.000000      6.000000
  0.263158  0.000000  0.000000      6.000000
  0.315789  0.000000  0.000000      6.000000
  0.368421  0.000000  0.000000      6.000000
  0.421053  0.000000  0.000000      6.000000
  0.473684  0.000000  0.000000      6.000000
  0.052632  0.052632  0.000000     12.000000
  0.105263  0.052632  0.000000     24.000000
  0.157895  0.052632  0.000000     24.000000
  0.210526  0.052632  0.000000     24.000000
  0.263158  0.052632  0.000000     24.000000
  0.315789  0.052632  0.000000     24.000000
  0.368421  0.052632  0.000000     24.000000
  0.421053  0.052632  0.000000     24.000000
  0.473684  0.052632  0.000000     24.000000
  0.105263  0.105263  0.000000     12.000000
  0.157895  0.105263  0.000000     24.000000
  0.210526  0.105263  0.000000     24.000000
  0.263158  0.105263  0.000000     24.000000
  0.315789  0.105263  0.000000     24.000000
  0.368421  0.105263  0.000000     24.000000
  0.421053  0.105263  0.000000     24.000000
  0.473684  0.105263  0.000000     24.000000
  0.157895  0.157895  0.000000     12.000000
  0.210526  0.157895  0.000000     24.000000
  0.263158  0.157895  0.000000     24.000000
  0.315789  0.157895  0.000000     24.000000
  0.368421  0.157895  0.000000     24.000000
  0.421053  0.157895  0.000000     24.000000
  0.473684  0.157895  0.000000     24.000000
  0.210526  0.210526  0.000000     12.000000
  0.263158  0.210526  0.000000     24.000000
  0.315789  0.210526  0.000000     24.000000
  0.368421  0.210526  0.000000     24.000000
  0.421053  0.210526  0.000000     24.000000
  0.473684  0.210526  0.000000     24.000000
  0.263158  0.263158  0.000000     12.000000
  0.315789  0.263158  0.000000     24.000000
  0.368421  0.263158  0.000000     24.000000
  0.421053  0.263158  0.000000     24.000000
  0.473684  0.263158  0.000000     24.000000
  0.315789  0.315789  0.000000     12.000000
  0.368421  0.315789  0.000000     24.000000
  0.421053  0.315789  0.000000     24.000000
  0.473684  0.315789  0.000000     24.000000
  0.368421  0.368421  0.000000     12.000000
  0.421053  0.368421  0.000000     24.000000
  0.473684  0.368421  0.000000     24.000000
  0.421053  0.421053  0.000000     12.000000
  0.473684  0.421053  0.000000     24.000000
  0.473684  0.473684  0.000000     12.000000
  0.052632  0.052632  0.052632      8.000000
  0.105263  0.052632  0.052632     24.000000
  0.157895  0.052632  0.052632     24.000000
  0.210526  0.052632  0.052632     24.000000
  0.263158  0.052632  0.052632     24.000000
  0.315789  0.052632  0.052632     24.000000
  0.368421  0.052632  0.052632     24.000000
  0.421053  0.052632  0.052632     24.000000
  0.473684  0.052632  0.052632     24.000000
  0.105263  0.105263  0.052632     24.000000
  0.157895  0.105263  0.052632     48.000000
  0.210526  0.105263  0.052632     48.000000
  0.263158  0.105263  0.052632     48.000000
  0.315789  0.105263  0.052632     48.000000
  0.368421  0.105263  0.052632     48.000000
  0.421053  0.105263  0.052632     48.000000
  0.473684  0.105263  0.052632     48.000000
  0.157895  0.157895  0.052632     24.000000
  0.210526  0.157895  0.052632     48.000000
  0.263158  0.157895  0.052632     48.000000
  0.315789  0.157895  0.052632     48.000000
  0.368421  0.157895  0.052632     48.000000
  0.421053  0.157895  0.052632     48.000000
  0.473684  0.157895  0.052632     48.000000
  0.210526  0.210526  0.052632     24.000000
  0.263158  0.210526  0.052632     48.000000
  0.315789  0.210526  0.052632     48.000000
  0.368421  0.210526  0.052632     48.000000
  0.421053  0.210526  0.052632     48.000000
  0.473684  0.210526  0.052632     48.000000
  0.263158  0.263158  0.052632     24.000000
  0.315789  0.263158  0.052632     48.000000
  0.368421  0.263158  0.052632     48.000000
  0.421053  0.263158  0.052632     48.000000
  0.473684  0.263158  0.052632     48.000000
  0.315789  0.315789  0.052632     24.000000
  0.368421  0.315789  0.052632     48.000000
  0.421053  0.315789  0.052632     48.000000
  0.473684  0.315789  0.052632     48.000000
  0.368421  0.368421  0.052632     24.000000
  0.421053  0.368421  0.052632     48.000000
  0.473684  0.368421  0.052632     48.000000
  0.421053  0.421053  0.052632     24.000000
  0.473684  0.421053  0.052632     48.000000
  0.473684  0.473684  0.052632     24.000000
  0.105263  0.105263  0.105263      8.000000
  0.157895  0.105263  0.105263     24.000000
  0.210526  0.105263  0.105263     24.000000
  0.263158  0.105263  0.105263     24.000000
  0.315789  0.105263  0.105263     24.000000
  0.368421  0.105263  0.105263     24.000000
  0.421053  0.105263  0.105263     24.000000
  0.473684  0.105263  0.105263     24.000000
  0.157895  0.157895  0.105263     24.000000
  0.210526  0.157895  0.105263     48.000000
  0.263158  0.157895  0.105263     48.000000
  0.315789  0.157895  0.105263     48.000000
  0.368421  0.157895  0.105263     48.000000
  0.421053  0.157895  0.105263     48.000000
  0.473684  0.157895  0.105263     48.000000
  0.210526  0.210526  0.105263     24.000000
  0.263158  0.210526  0.105263     48.000000
  0.315789  0.210526  0.105263     48.000000
  0.368421  0.210526  0.105263     48.000000
  0.421053  0.210526  0.105263     48.000000
  0.473684  0.210526  0.105263     48.000000
  0.263158  0.263158  0.105263     24.000000
  0.315789  0.263158  0.105263     48.000000
  0.368421  0.263158  0.105263     48.000000
  0.421053  0.263158  0.105263     48.000000
  0.473684  0.263158  0.105263     48.000000
  0.315789  0.315789  0.105263     24.000000
  0.368421  0.315789  0.105263     48.000000
  0.421053  0.315789  0.105263     48.000000
  0.473684  0.315789  0.105263     48.000000
  0.368421  0.368421  0.105263     24.000000
  0.421053  0.368421  0.105263     48.000000
  0.473684  0.368421  0.105263     48.000000
  0.421053  0.421053  0.105263     24.000000
  0.473684  0.421053  0.105263     48.000000
  0.473684  0.473684  0.105263     24.000000
  0.157895  0.157895  0.157895      8.000000
  0.210526  0.157895  0.157895     24.000000
  0.263158  0.157895  0.157895     24.000000
  0.315789  0.157895  0.157895     24.000000
  0.368421  0.157895  0.157895     24.000000
  0.421053  0.157895  0.157895     24.000000
  0.473684  0.157895  0.157895     24.000000
  0.210526  0.210526  0.157895     24.000000
  0.263158  0.210526  0.157895     48.000000
  0.315789  0.210526  0.157895     48.000000
  0.368421  0.210526  0.157895     48.000000
  0.421053  0.210526  0.157895     48.000000
  0.473684  0.210526  0.157895     48.000000
  0.263158  0.263158  0.157895     24.000000
  0.315789  0.263158  0.157895     48.000000
  0.368421  0.263158  0.157895     48.000000
  0.421053  0.263158  0.157895     48.000000
  0.473684  0.263158  0.157895     48.000000
  0.315789  0.315789  0.157895     24.000000
  0.368421  0.315789  0.157895     48.000000
  0.421053  0.315789  0.157895     48.000000
  0.473684  0.315789  0.157895     48.000000
  0.368421  0.368421  0.157895     24.000000
  0.421053  0.368421  0.157895     48.000000
  0.473684  0.368421  0.157895     48.000000
  0.421053  0.421053  0.157895     24.000000
  0.473684  0.421053  0.157895     48.000000
  0.473684  0.473684  0.157895     24.000000
  0.210526  0.210526  0.210526      8.000000
  0.263158  0.210526  0.210526     24.000000
  0.315789  0.210526  0.210526     24.000000
  0.368421  0.210526  0.210526     24.000000
  0.421053  0.210526  0.210526     24.000000
  0.473684  0.210526  0.210526     24.000000
  0.263158  0.263158  0.210526     24.000000
  0.315789  0.263158  0.210526     48.000000
  0.368421  0.263158  0.210526     48.000000
  0.421053  0.263158  0.210526     48.000000
  0.473684  0.263158  0.210526     48.000000
  0.315789  0.315789  0.210526     24.000000
  0.368421  0.315789  0.210526     48.000000
  0.421053  0.315789  0.210526     48.000000
  0.473684  0.315789  0.210526     48.000000
  0.368421  0.368421  0.210526     24.000000
  0.421053  0.368421  0.210526     48.000000
  0.473684  0.368421  0.210526     48.000000
  0.421053  0.421053  0.210526     24.000000
  0.473684  0.421053  0.210526     48.000000
  0.473684  0.473684  0.210526     24.000000
  0.263158  0.263158  0.263158      8.000000
  0.315789  0.263158  0.263158     24.000000
  0.368421  0.263158  0.263158     24.000000
  0.421053  0.263158  0.263158     24.000000
  0.473684  0.263158  0.263158     24.000000
  0.315789  0.315789  0.263158     24.000000
  0.368421  0.315789  0.263158     48.000000
  0.421053  0.315789  0.263158     48.000000
  0.473684  0.315789  0.263158     48.000000
  0.368421  0.368421  0.263158     24.000000
  0.421053  0.368421  0.263158     48.000000
  0.473684  0.368421  0.263158     48.000000
  0.421053  0.421053  0.263158     24.000000
  0.473684  0.421053  0.263158     48.000000
  0.473684  0.473684  0.263158     24.000000
  0.315789  0.315789  0.315789      8.000000
  0.368421  0.315789  0.315789     24.000000
  0.421053  0.315789  0.315789     24.000000
  0.473684  0.315789  0.315789     24.000000
  0.368421  0.368421  0.315789     24.000000
  0.421053  0.368421  0.315789     48.000000
  0.473684  0.368421  0.315789     48.000000
  0.421053  0.421053  0.315789     24.000000
  0.473684  0.421053  0.315789     48.000000
  0.473684  0.473684  0.315789     24.000000
  0.368421  0.368421  0.368421      8.000000
  0.421053  0.368421  0.368421     24.000000
  0.473684  0.368421  0.368421     24.000000
  0.421053  0.421053  0.368421     24.000000
  0.473684  0.421053  0.368421     48.000000
  0.473684  0.473684  0.368421     24.000000
  0.421053  0.421053  0.421053      8.000000
  0.473684  0.421053  0.421053     24.000000
  0.473684  0.473684  0.421053     24.000000
  0.473684  0.473684  0.473684      8.000000
 
 Following cartesian coordinates:
            Coordinates               Weight
  0.000000  0.000000  0.000000      1.000000
  0.036493  0.000000  0.000000      6.000000
  0.072987  0.000000  0.000000      6.000000
  0.109480  0.000000  0.000000      6.000000
  0.145974  0.000000  0.000000      6.000000
  0.182467  0.000000  0.000000      6.000000
  0.218961  0.000000  0.000000      6.000000
  0.255454  0.000000  0.000000      6.000000
  0.291948  0.000000  0.000000      6.000000
  0.328441  0.000000  0.000000      6.000000
  0.036493  0.036493  0.000000     12.000000
  0.072987  0.036493  0.000000     24.000000
  0.109480  0.036493  0.000000     24.000000
  0.145974  0.036493  0.000000     24.000000
  0.182467  0.036493  0.000000     24.000000
  0.218961  0.036493  0.000000     24.000000
  0.255454  0.036493  0.000000     24.000000
  0.291948  0.036493  0.000000     24.000000
  0.328441  0.036493  0.000000     24.000000
  0.072987  0.072987  0.000000     12.000000
  0.109480  0.072987  0.000000     24.000000
  0.145974  0.072987  0.000000     24.000000
  0.182467  0.072987  0.000000     24.000000
  0.218961  0.072987  0.000000     24.000000
  0.255454  0.072987  0.000000     24.000000
  0.291948  0.072987  0.000000     24.000000
  0.328441  0.072987  0.000000     24.000000
  0.109480  0.109480  0.000000     12.000000
  0.145974  0.109480  0.000000     24.000000
  0.182467  0.109480  0.000000     24.000000
  0.218961  0.109480  0.000000     24.000000
  0.255454  0.109480  0.000000     24.000000
  0.291948  0.109480  0.000000     24.000000
  0.328441  0.109480  0.000000     24.000000
  0.145974  0.145974  0.000000     12.000000
  0.182467  0.145974  0.000000     24.000000
  0.218961  0.145974  0.000000     24.000000
  0.255454  0.145974  0.000000     24.000000
  0.291948  0.145974  0.000000     24.000000
  0.328441  0.145974  0.000000     24.000000
  0.182467  0.182467  0.000000     12.000000
  0.218961  0.182467  0.000000     24.000000
  0.255454  0.182467  0.000000     24.000000
  0.291948  0.182467  0.000000     24.000000
  0.328441  0.182467  0.000000     24.000000
  0.218961  0.218961  0.000000     12.000000
  0.255454  0.218961  0.000000     24.000000
  0.291948  0.218961  0.000000     24.000000
  0.328441  0.218961  0.000000     24.000000
  0.255454  0.255454  0.000000     12.000000
  0.291948  0.255454  0.000000     24.000000
  0.328441  0.255454  0.000000     24.000000
  0.291948  0.291948  0.000000     12.000000
  0.328441  0.291948  0.000000     24.000000
  0.328441  0.328441  0.000000     12.000000
  0.036493  0.036493  0.036493      8.000000
  0.072987  0.036493  0.036493     24.000000
  0.109480  0.036493  0.036493     24.000000
  0.145974  0.036493  0.036493     24.000000
  0.182467  0.036493  0.036493     24.000000
  0.218961  0.036493  0.036493     24.000000
  0.255454  0.036493  0.036493     24.000000
  0.291948  0.036493  0.036493     24.000000
  0.328441  0.036493  0.036493     24.000000
  0.072987  0.072987  0.036493     24.000000
  0.109480  0.072987  0.036493     48.000000
  0.145974  0.072987  0.036493     48.000000
  0.182467  0.072987  0.036493     48.000000
  0.218961  0.072987  0.036493     48.000000
  0.255454  0.072987  0.036493     48.000000
  0.291948  0.072987  0.036493     48.000000
  0.328441  0.072987  0.036493     48.000000
  0.109480  0.109480  0.036493     24.000000
  0.145974  0.109480  0.036493     48.000000
  0.182467  0.109480  0.036493     48.000000
  0.218961  0.109480  0.036493     48.000000
  0.255454  0.109480  0.036493     48.000000
  0.291948  0.109480  0.036493     48.000000
  0.328441  0.109480  0.036493     48.000000
  0.145974  0.145974  0.036493     24.000000
  0.182467  0.145974  0.036493     48.000000
  0.218961  0.145974  0.036493     48.000000
  0.255454  0.145974  0.036493     48.000000
  0.291948  0.145974  0.036493     48.000000
  0.328441  0.145974  0.036493     48.000000
  0.182467  0.182467  0.036493     24.000000
  0.218961  0.182467  0.036493     48.000000
  0.255454  0.182467  0.036493     48.000000
  0.291948  0.182467  0.036493     48.000000
  0.328441  0.182467  0.036493     48.000000
  0.218961  0.218961  0.036493     24.000000
  0.255454  0.218961  0.036493     48.000000
  0.291948  0.218961  0.036493     48.000000
  0.328441  0.218961  0.036493     48.000000
  0.255454  0.255454  0.036493     24.000000
  0.291948  0.255454  0.036493     48.000000
  0.328441  0.255454  0.036493     48.000000
  0.291948  0.291948  0.036493     24.000000
  0.328441  0.291948  0.036493     48.000000
  0.328441  0.328441  0.036493     24.000000
  0.072987  0.072987  0.072987      8.000000
  0.109480  0.072987  0.072987     24.000000
  0.145974  0.072987  0.072987     24.000000
  0.182467  0.072987  0.072987     24.000000
  0.218961  0.072987  0.072987     24.000000
  0.255454  0.072987  0.072987     24.000000
  0.291948  0.072987  0.072987     24.000000
  0.328441  0.072987  0.072987     24.000000
  0.109480  0.109480  0.072987     24.000000
  0.145974  0.109480  0.072987     48.000000
  0.182467  0.109480  0.072987     48.000000
  0.218961  0.109480  0.072987     48.000000
  0.255454  0.109480  0.072987     48.000000
  0.291948  0.109480  0.072987     48.000000
  0.328441  0.109480  0.072987     48.000000
  0.145974  0.145974  0.072987     24.000000
  0.182467  0.145974  0.072987     48.000000
  0.218961  0.145974  0.072987     48.000000
  0.255454  0.145974  0.072987     48.000000
  0.291948  0.145974  0.072987     48.000000
  0.328441  0.145974  0.072987     48.000000
  0.182467  0.182467  0.072987     24.000000
  0.218961  0.182467  0.072987     48.000000
  0.255454  0.182467  0.072987     48.000000
  0.291948  0.182467  0.072987     48.000000
  0.328441  0.182467  0.072987     48.000000
  0.218961  0.218961  0.072987     24.000000
  0.255454  0.218961  0.072987     48.000000
  0.291948  0.218961  0.072987     48.000000
  0.328441  0.218961  0.072987     48.000000
  0.255454  0.255454  0.072987     24.000000
  0.291948  0.255454  0.072987     48.000000
  0.328441  0.255454  0.072987     48.000000
  0.291948  0.291948  0.072987     24.000000
  0.328441  0.291948  0.072987     48.000000
  0.328441  0.328441  0.072987     24.000000
  0.109480  0.109480  0.109480      8.000000
  0.145974  0.109480  0.109480     24.000000
  0.182467  0.109480  0.109480     24.000000
  0.218961  0.109480  0.109480     24.000000
  0.255454  0.109480  0.109480     24.000000
  0.291948  0.109480  0.109480     24.000000
  0.328441  0.109480  0.109480     24.000000
  0.145974  0.145974  0.109480     24.000000
  0.182467  0.145974  0.109480     48.000000
  0.218961  0.145974  0.109480     48.000000
  0.255454  0.145974  0.109480     48.000000
  0.291948  0.145974  0.109480     48.000000
  0.328441  0.145974  0.109480     48.000000
  0.182467  0.182467  0.109480     24.000000
  0.218961  0.182467  0.109480     48.000000
  0.255454  0.182467  0.109480     48.000000
  0.291948  0.182467  0.109480     48.000000
  0.328441  0.182467  0.109480     48.000000
  0.218961  0.218961  0.109480     24.000000
  0.255454  0.218961  0.109480     48.000000
  0.291948  0.218961  0.109480     48.000000
  0.328441  0.218961  0.109480     48.000000
  0.255454  0.255454  0.109480     24.000000
  0.291948  0.255454  0.109480     48.000000
  0.328441  0.255454  0.109480     48.000000
  0.291948  0.291948  0.109480     24.000000
  0.328441  0.291948  0.109480     48.000000
  0.328441  0.328441  0.109480     24.000000
  0.145974  0.145974  0.145974      8.000000
  0.182467  0.145974  0.145974     24.000000
  0.218961  0.145974  0.145974     24.000000
  0.255454  0.145974  0.145974     24.000000
  0.291948  0.145974  0.145974     24.000000
  0.328441  0.145974  0.145974     24.000000
  0.182467  0.182467  0.145974     24.000000
  0.218961  0.182467  0.145974     48.000000
  0.255454  0.182467  0.145974     48.000000
  0.291948  0.182467  0.145974     48.000000
  0.328441  0.182467  0.145974     48.000000
  0.218961  0.218961  0.145974     24.000000
  0.255454  0.218961  0.145974     48.000000
  0.291948  0.218961  0.145974     48.000000
  0.328441  0.218961  0.145974     48.000000
  0.255454  0.255454  0.145974     24.000000
  0.291948  0.255454  0.145974     48.000000
  0.328441  0.255454  0.145974     48.000000
  0.291948  0.291948  0.145974     24.000000
  0.328441  0.291948  0.145974     48.000000
  0.328441  0.328441  0.145974     24.000000
  0.182467  0.182467  0.182467      8.000000
  0.218961  0.182467  0.182467     24.000000
  0.255454  0.182467  0.182467     24.000000
  0.291948  0.182467  0.182467     24.000000
  0.328441  0.182467  0.182467     24.000000
  0.218961  0.218961  0.182467     24.000000
  0.255454  0.218961  0.182467     48.000000
  0.291948  0.218961  0.182467     48.000000
  0.328441  0.218961  0.182467     48.000000
  0.255454  0.255454  0.182467     24.000000
  0.291948  0.255454  0.182467     48.000000
  0.328441  0.255454  0.182467     48.000000
  0.291948  0.291948  0.182467     24.000000
  0.328441  0.291948  0.182467     48.000000
  0.328441  0.328441  0.182467     24.000000
  0.218961  0.218961  0.218961      8.000000
  0.255454  0.218961  0.218961     24.000000
  0.291948  0.218961  0.218961     24.000000
  0.328441  0.218961  0.218961     24.000000
  0.255454  0.255454  0.218961     24.000000
  0.291948  0.255454  0.218961     48.000000
  0.328441  0.255454  0.218961     48.000000
  0.291948  0.291948  0.218961     24.000000
  0.328441  0.291948  0.218961     48.000000
  0.328441  0.328441  0.218961     24.000000
  0.255454  0.255454  0.255454      8.000000
  0.291948  0.255454  0.255454     24.000000
  0.328441  0.255454  0.255454     24.000000
  0.291948  0.291948  0.255454     24.000000
  0.328441  0.291948  0.255454     48.000000
  0.328441  0.328441  0.255454     24.000000
  0.291948  0.291948  0.291948      8.000000
  0.328441  0.291948  0.291948     24.000000
  0.328441  0.328441  0.291948     24.000000
  0.328441  0.328441  0.328441      8.000000
 


--------------------------------------------------------------------------------------------------------




 Dimension of arrays:
   k-points           NKPTS =    220   k-points in BZ     NKDIM =    220   number of bands    NBANDS=      4
   number of dos      NEDOS =    301   number of ions     NIONS =      1
   non local maximal  LDIM  =      3   non local SUM 2l+1 LMDIM =      5
   total plane-waves  NPLWV =    216
   max r-space proj   IRMAX =   1133   max aug-charges    IRDMAX=   2999
   dimension x,y,z NGX =     6 NGY =    6 NGZ =    6
   dimension x,y,z NGXF=    12 NGYF=   12 NGZF=   12
   support grid    NGXF=    24 NGYF=   24 NGZF=   24
   ions per type =               1
 NGX,Y,Z   is equivalent  to a cutoff of   6.92,  6.92,  6.92 a.u.
 NGXF,Y,Z  is equivalent  to a cutoff of  13.83, 13.83, 13.83 a.u.


 I would recommend the setting:
   dimension x,y,z NGX =     6 NGY =    6 NGZ =    6
 SYSTEM =  jump2                                   
 POSCAR =  Cs2 Na1 Sb1 Cl6                         

 Startparameter for this run:
   NWRITE =      2    write-flag & timer
   PREC   = normal    normal or accurate (medium, high low for compatibility)
   ISTART =      0    job   : 0-new  1-cont  2-samecut
   ICHARG =      2    charge: 1-file 2-atom 10-const
   ISPIN  =      1    spin polarized calculation?
   LNONCOLLINEAR =      F non collinear calculations
   LSORBIT =      F    spin-orbit coupling
   INIWAV =      1    electr: 0-lowe 1-rand  2-diag
   LASPH  =      F    aspherical Exc in radial PAW
   METAGGA=      F    non-selfconsistent MetaGGA calc.

 Electronic Relaxation 1
   ENCUT  =  325.0 eV  23.89 Ry    4.89 a.u.   2.12  2.12  2.12*2*pi/ulx,y,z
   ENINI  =  325.0     initial cutoff
   ENAUG  =  400.0 eV  augmentation charge cutoff
   NELM   =     60;   NELMIN=  2; NELMDL= -5     # of ELM steps 
   EDIFF  = 0.1E-03   stopping-criterion for ELM
   LREAL  =      T    real-space projection
   NLSPLINE    = F    spline interpolate recip. space projectors
   LCOMPAT=      F    compatible to vasp.4.4
   GGA_COMPAT  = T    GGA compatible to vasp.4.4-vasp.4.6
   LMAXPAW     = -100 max onsite density
   LMAXMIX     =    2 max onsite mixed and CHGCAR
   VOSKOWN=      0    Vosko Wilk Nusair interpolation
   ROPT   =   -0.00050
 Ionic relaxation
   EDIFFG = -.1E-01   stopping-criterion for IOM
   NSW    =     30    number of steps for IOM
   NBLOCK =      1;   KBLOCK =     30    inner block; outer block 
   IBRION =      2    ionic relax: 0-MD 1-quasi-New 2-CG
   NFREE  =      1    steps in history (QN), initial steepest desc. (CG)
   ISIF   =      3    stress and relaxation
   IWAVPR =     11    prediction:  0-non 1-charg 2-wave 3-comb
   ISYM   =      2    0-nonsym 1-usesym 2-fastsym
   LCORR  =      T    Harris-Foulkes like correction to forces

   POTIM  = 0.5000    time-step for ionic-motion
   TEIN   =    0.0    initial temperature
   TEBEG  =    0.0;   TEEND  =   0.0 temperature during run
   SMASS  =  -3.00    Nose mass-parameter (am)
   estimated Nose-frequenzy (Omega)   =  0.10E-29 period in steps =****** mass=  -0.475E-28a.u.
   SCALEE = 1.0000    scale energy and forces
   NPACO  =    256;   APACO  = 16.0  distance and # of slots for P.C.
   PSTRESS=    0.0 pullay stress

  Mass of Ions in am
   POMASS =   1.00
  Ionic Valenz
   ZVAL   =   1.00
  Atomic Wigner-Seitz radii
   RWIGS  =  -1.00
  virtual crystal weights 
   VCA    =   1.00
   NELECT =       1.0000    total number of electrons
   NUPDOWN=      -1.0000    fix difference up-down

 DOS related values:
   EMIN   =  10.00;   EMAX   =-10.00  energy-range for DOS
   EFERMI =   0.00
   ISMEAR =     0;   SIGMA  =   0.10  broadening in eV -4-tet -1-fermi 0-gaus

 Electronic relaxation 2 (details)
   IALGO  =     38    algorithm
   LDIAG  =      T    sub-space diagonalisation (order eigenvalues)
   LSUBROT=      T    optimize rotation matrix (better conditioning)
   TURBO    =      0    0=normal 1=particle mesh
   IRESTART =      0    0=no restart 2=restart with 2 vectors
   NREBOOT  =      0    no. of reboots
   NMIN     =      0    reboot dimension
   EREF     =   0.00    reference energy to select bands
   IMIX   =      4    mixing-type and parameters
     AMIX     =   0.40;   BMIX     =  1.00
     AMIX_MAG =   1.60;   BMIX_MAG =  1.00
     AMIN     =   0.01
     WC   =   100.;   INIMIX=   1;  MIXPRE=   1

 Intra band minimization:
   WEIMIN = 0.0010     energy-eigenvalue tresh-hold
   EBREAK =  0.63E-05  absolut break condition
   DEPER  =   0.30     relativ break condition  

   TIME   =   0.40     timestep for ELM

  volume/ion in A,a.u.               =       3.00        20.24
  Fermi-wavevector in a.u.,A,eV,Ry     =   1.135124  2.145074 17.531204  1.288507
  Thomas-Fermi vector in A             =   2.271829
 
 Write flags
   LWAVE  =      F    write WAVECAR
   LCHARG =      T    write CHGCAR
   LVTOT  =      F    write LOCPOT, total local potential
   LVHAR  =      F    write LOCPOT, Hartree potential only
   LELF   =      F    write electronic localiz. function (ELF)
   LORBIT =     11    0 simple, 1 ext, 2 COOP (PROOUT)


 Dipole corrections
   LMONO  =      F    monopole corrections only (constant potential shift)
   LDIPOL =      F    correct potential (dipole corrections)
   IDIPOL =      0    1-x, 2-y, 3-z, 4-all directions 
   EPSILON=  1.0000000 bulk dielectric constant

 Exchange correlation treatment:
   GGA     =    --    GGA type
   LEXCH   =     8    internal setting for exchange type
   VOSKOWN=      0    Vosko Wilk Nusair interpolation
   LHFCALC =     F    Hartree Fock is set to
   LHFONE  =     F    Hartree Fock one center treatment
   AEXX    =    0.0000 exact exchange contribution

 Linear response parameters
   LEPSILON=     F    determine dielectric tensor
   LRPA    =     F    only Hartree local field effects (RPA)
   LNABLA  =     F    use nabla operator in PAW spheres
   LVEL    =     F    velocity operator in full k-point grid
   LINTERFAST=   F  fast interpolation
   KINTER  =     0    interpolate to denser k-point grid
   CSHIFT  =0.1000    complex shift for real part using Kramers Kronig
   OMEGAMAX=  -1.0    maximum frequency
   RTIME   =    0.100 relaxation time in fs

 Orbital magnetization related:
   ORBITALMAG=     F  switch on orbital magnetization
   LCHIMAG   =     F  perturbation theory with respect to B field
   DQ        =  0.001000  dq finite difference perturbation B field



--------------------------------------------------------------------------------------------------------


 conjugate gradient relaxation of ions
 charge density and potential will be updated during run
 non-spin polarized calculation
 Variant of blocked Davidson
 Davidson routine will perform the subspace rotation
 perform sub-space diagonalisation
    after iterative eigenvector-optimisation
 modified Broyden-mixing scheme, WC =      100.0
 initial mixing is a Kerker type mixing with AMIX =  0.4000 and BMIX =      1.0000
 Hartree-type preconditioning will be used
 using additional bands            3
 real space projection scheme for non local part
 calculate Harris-corrections to forces 
   (improved forces if not selfconsistent)
 use gradient corrections 
 use of overlap-Matrix (Vanderbilt PP)
 Gauss-broadening in eV      SIGMA  =   0.10


--------------------------------------------------------------------------------------------------------


  energy-cutoff  :      325.00
  volume of cell :        3.00
      direct lattice vectors                 reciprocal lattice vectors
     1.442219654  0.000000000  0.000000000     0.693375657  0.000000000  0.000000000
     0.000000000  1.442219654  0.000000000     0.000000000  0.693375657  0.000000000
     0.000000000  0.000000000  1.442219654     0.000000000  0.000000000  0.693375657

  length of vectors
     1.442219654  1.442219654  1.442219654     0.693375657  0.693375657  0.693375657


 
 k-points in units of 2pi/SCALE and weight: read from INCAR                         
   0.00000000  0.00000000  0.00000000       0.000
   0.03649346  0.00000000  0.00000000       0.001
   0.07298691  0.00000000  0.00000000       0.001
   0.10948037  0.00000000  0.00000000       0.001
   0.14597382  0.00000000  0.00000000       0.001
   0.18246728  0.00000000  0.00000000       0.001
   0.21896073  0.00000000  0.00000000       0.001
   0.25545419  0.00000000  0.00000000       0.001
   0.29194765  0.00000000  0.00000000       0.001
   0.32844110  0.00000000  0.00000000       0.001
   0.03649346  0.03649346  0.00000000       0.002
   0.07298691  0.03649346  0.00000000       0.003
   0.10948037  0.03649346  0.00000000       0.003
   0.14597382  0.03649346  0.00000000       0.003
   0.18246728  0.03649346  0.00000000       0.003
   0.21896073  0.03649346  0.00000000       0.003
   0.25545419  0.03649346  0.00000000       0.003
   0.29194765  0.03649346  0.00000000       0.003
   0.32844110  0.03649346  0.00000000       0.003
   0.07298691  0.07298691  0.00000000       0.002
   0.10948037  0.07298691  0.00000000       0.003
   0.14597382  0.07298691  0.00000000       0.003
   0.18246728  0.07298691  0.00000000       0.003
   0.21896073  0.07298691  0.00000000       0.003
   0.25545419  0.07298691  0.00000000       0.003
   0.29194765  0.07298691  0.00000000       0.003
   0.32844110  0.07298691  0.00000000       0.003
   0.10948037  0.10948037  0.00000000       0.002
   0.14597382  0.10948037  0.00000000       0.003
   0.18246728  0.10948037  0.00000000       0.003
   0.21896073  0.10948037  0.00000000       0.003
   0.25545419  0.10948037  0.00000000       0.003
   0.29194765  0.10948037  0.00000000       0.003
   0.32844110  0.10948037  0.00000000       0.003
   0.14597382  0.14597382  0.00000000       0.002
   0.18246728  0.14597382  0.00000000       0.003
   0.21896073  0.14597382  0.00000000       0.003
   0.25545419  0.14597382  0.00000000       0.003
   0.29194765  0.14597382  0.00000000       0.003
   0.32844110  0.14597382  0.00000000       0.003
   0.18246728  0.18246728  0.00000000       0.002
   0.21896073  0.18246728  0.00000000       0.003
   0.25545419  0.18246728  0.00000000       0.003
   0.29194765  0.18246728  0.00000000       0.003
   0.32844110  0.18246728  0.00000000       0.003
   0.21896073  0.21896073  0.00000000       0.002
   0.25545419  0.21896073  0.00000000       0.003
   0.29194765  0.21896073  0.00000000       0.003
   0.32844110  0.21896073  0.00000000       0.003
   0.25545419  0.25545419  0.00000000       0.002
   0.29194765  0.25545419  0.00000000       0.003
   0.32844110  0.25545419  0.00000000       0.003
   0.29194765  0.29194765  0.00000000       0.002
   0.32844110  0.29194765  0.00000000       0.003
   0.32844110  0.32844110  0.00000000       0.002
   0.03649346  0.03649346  0.03649346       0.001
   0.07298691  0.03649346  0.03649346       0.003
   0.10948037  0.03649346  0.03649346       0.003
   0.14597382  0.03649346  0.03649346       0.003
   0.18246728  0.03649346  0.03649346       0.003
   0.21896073  0.03649346  0.03649346       0.003
   0.25545419  0.03649346  0.03649346       0.003
   0.29194765  0.03649346  0.03649346       0.003
   0.32844110  0.03649346  0.03649346       0.003
   0.07298691  0.07298691  0.03649346       0.003
   0.10948037  0.07298691  0.03649346       0.007
   0.14597382  0.07298691  0.03649346       0.007
   0.18246728  0.07298691  0.03649346       0.007
   0.21896073  0.07298691  0.03649346       0.007
   0.25545419  0.07298691  0.03649346       0.007
   0.29194765  0.07298691  0.03649346       0.007
   0.32844110  0.07298691  0.03649346       0.007
   0.10948037  0.10948037  0.03649346       0.003
   0.14597382  0.10948037  0.03649346       0.007
   0.18246728  0.10948037  0.03649346       0.007
   0.21896073  0.10948037  0.03649346       0.007
   0.25545419  0.10948037  0.03649346       0.007
   0.29194765  0.10948037  0.03649346       0.007
   0.32844110  0.10948037  0.03649346       0.007
   0.14597382  0.14597382  0.03649346       0.003
   0.18246728  0.14597382  0.03649346       0.007
   0.21896073  0.14597382  0.03649346       0.007
   0.25545419  0.14597382  0.03649346       0.007
   0.29194765  0.14597382  0.03649346       0.007
   0.32844110  0.14597382  0.03649346       0.007
   0.18246728  0.18246728  0.03649346       0.003
   0.21896073  0.18246728  0.03649346       0.007
   0.25545419  0.18246728  0.03649346       0.007
   0.29194765  0.18246728  0.03649346       0.007
   0.32844110  0.18246728  0.03649346       0.007
   0.21896073  0.21896073  0.03649346       0.003
   0.25545419  0.21896073  0.03649346       0.007
   0.29194765  0.21896073  0.03649346       0.007
   0.32844110  0.21896073  0.03649346       0.007
   0.25545419  0.25545419  0.03649346       0.003
   0.29194765  0.25545419  0.03649346       0.007
   0.32844110  0.25545419  0.03649346       0.007
   0.29194765  0.29194765  0.03649346       0.003
   0.32844110  0.29194765  0.03649346       0.007
   0.32844110  0.32844110  0.03649346       0.003
   0.07298691  0.07298691  0.07298691       0.001
   0.10948037  0.07298691  0.07298691       0.003
   0.14597382  0.07298691  0.07298691       0.003
   0.18246728  0.07298691  0.07298691       0.003
   0.21896073  0.07298691  0.07298691       0.003
   0.25545419  0.07298691  0.07298691       0.003
   0.29194765  0.07298691  0.07298691       0.003
   0.32844110  0.07298691  0.07298691       0.003
   0.10948037  0.10948037  0.07298691       0.003
   0.14597382  0.10948037  0.07298691       0.007
   0.18246728  0.10948037  0.07298691       0.007
   0.21896073  0.10948037  0.07298691       0.007
   0.25545419  0.10948037  0.07298691       0.007
   0.29194765  0.10948037  0.07298691       0.007
   0.32844110  0.10948037  0.07298691       0.007
   0.14597382  0.14597382  0.07298691       0.003
   0.18246728  0.14597382  0.07298691       0.007
   0.21896073  0.14597382  0.07298691       0.007
   0.25545419  0.14597382  0.07298691       0.007
   0.29194765  0.14597382  0.07298691       0.007
   0.32844110  0.14597382  0.07298691       0.007
   0.18246728  0.18246728  0.07298691       0.003
   0.21896073  0.18246728  0.07298691       0.007
   0.25545419  0.18246728  0.07298691       0.007
   0.29194765  0.18246728  0.07298691       0.007
   0.32844110  0.18246728  0.07298691       0.007
   0.21896073  0.21896073  0.07298691       0.003
   0.25545419  0.21896073  0.07298691       0.007
   0.29194765  0.21896073  0.07298691       0.007
   0.32844110  0.21896073  0.07298691       0.007
   0.25545419  0.25545419  0.07298691       0.003
   0.29194765  0.25545419  0.07298691       0.007
   0.32844110  0.25545419  0.07298691       0.007
   0.29194765  0.29194765  0.07298691       0.003
   0.32844110  0.29194765  0.07298691       0.007
   0.32844110  0.32844110  0.07298691       0.003
   0.10948037  0.10948037  0.10948037       0.001
   0.14597382  0.10948037  0.10948037       0.003
   0.18246728  0.10948037  0.10948037       0.003
   0.21896073  0.10948037  0.10948037       0.003
   0.25545419  0.10948037  0.10948037       0.003
   0.29194765  0.10948037  0.10948037       0.003
   0.32844110  0.10948037  0.10948037       0.003
   0.14597382  0.14597382  0.10948037       0.003
   0.18246728  0.14597382  0.10948037       0.007
   0.21896073  0.14597382  0.10948037       0.007
   0.25545419  0.14597382  0.10948037       0.007
   0.29194765  0.14597382  0.10948037       0.007
   0.32844110  0.14597382  0.10948037       0.007
   0.18246728  0.18246728  0.10948037       0.003
   0.21896073  0.18246728  0.10948037       0.007
   0.25545419  0.18246728  0.10948037       0.007
   0.29194765  0.18246728  0.10948037       0.007
   0.32844110  0.18246728  0.10948037       0.007
   0.21896073  0.21896073  0.10948037       0.003
   0.25545419  0.21896073  0.10948037       0.007
   0.29194765  0.21896073  0.10948037       0.007
   0.32844110  0.21896073  0.10948037       0.007
   0.25545419  0.25545419  0.10948037       0.003
   0.29194765  0.25545419  0.10948037       0.007
   0.32844110  0.25545419  0.10948037       0.007
   0.29194765  0.29194765  0.10948037       0.003
   0.32844110  0.29194765  0.10948037       0.007
   0.32844110  0.32844110  0.10948037       0.003
   0.14597382  0.14597382  0.14597382       0.001
   0.18246728  0.14597382  0.14597382       0.003
   0.21896073  0.14597382  0.14597382       0.003
   0.25545419  0.14597382  0.14597382       0.003
   0.29194765  0.14597382  0.14597382       0.003
   0.32844110  0.14597382  0.14597382       0.003
   0.18246728  0.18246728  0.14597382       0.003
   0.21896073  0.18246728  0.14597382       0.007
   0.25545419  0.18246728  0.14597382       0.007
   0.29194765  0.18246728  0.14597382       0.007
   0.32844110  0.18246728  0.14597382       0.007
   0.21896073  0.21896073  0.14597382       0.003
   0.25545419  0.21896073  0.14597382       0.007
   0.29194765  0.21896073  0.14597382       0.007
   0.32844110  0.21896073  0.14597382       0.007
   0.25545419  0.25545419  0.14597382       0.003
   0.29194765  0.25545419  0.14597382       0.007
   0.32844110  0.25545419  0.14597382       0.007
   0.29194765  0.29194765  0.14597382       0.003
   0.32844110  0.29194765  0.14597382       0.007
   0.32844110  0.32844110  0.14597382       0.003
   0.18246728  0.18246728  0.18246728       0.001
   0.21896073  0.18246728  0.18246728       0.003
   0.25545419  0.18246728  0.18246728       0.003
   0.29194765  0.18246728  0.18246728       0.003
   0.32844110  0.18246728  0.18246728       0.003
   0.21896073  0.21896073  0.18246728       0.003
   0.25545419  0.21896073  0.18246728       0.007
   0.29194765  0.21896073  0.18246728       0.007
   0.32844110  0.21896073  0.18246728       0.007
   0.25545419  0.25545419  0.18246728       0.003
   0.29194765  0.25545419  0.18246728       0.007
   0.32844110  0.25545419  0.18246728       0.007
   0.29194765  0.29194765  0.18246728       0.003
   0.32844110  0.29194765  0.18246728       0.007
   0.32844110  0.32844110  0.18246728       0.003
   0.21896073  0.21896073  0.21896073       0.001
   0.25545419  0.21896073  0.21896073       0.003
   0.29194765  0.21896073  0.21896073       0.003
   0.32844110  0.21896073  0.21896073       0.003
   0.25545419  0.25545419  0.21896073       0.003
   0.29194765  0.25545419  0.21896073       0.007
   0.32844110  0.25545419  0.21896073       0.007
   0.29194765  0.29194765  0.21896073       0.003
   0.32844110  0.29194765  0.21896073       0.007
   0.32844110  0.32844110  0.21896073       0.003
   0.25545419  0.25545419  0.25545419       0.001
   0.29194765  0.25545419  0.25545419       0.003
   0.32844110  0.25545419  0.25545419       0.003
   0.29194765  0.29194765  0.25545419       0.003
   0.32844110  0.29194765  0.25545419       0.007
   0.32844110  0.32844110  0.25545419       0.003
   0.29194765  0.29194765  0.29194765       0.001
   0.32844110  0.29194765  0.29194765       0.003
   0.32844110  0.32844110  0.29194765       0.003
   0.32844110  0.32844110  0.32844110       0.001
 
 k-points in reciprocal lattice and weights: read from INCAR                         
   0.00000000  0.00000000  0.00000000       0.000
   0.05263158  0.00000000  0.00000000       0.001
   0.10526316  0.00000000  0.00000000       0.001
   0.15789474  0.00000000  0.00000000       0.001
   0.21052632  0.00000000  0.00000000       0.001
   0.26315789  0.00000000  0.00000000       0.001
   0.31578947  0.00000000  0.00000000       0.001
   0.36842105  0.00000000  0.00000000       0.001
   0.42105263  0.00000000  0.00000000       0.001
   0.47368421  0.00000000  0.00000000       0.001
   0.05263158  0.05263158  0.00000000       0.002
   0.10526316  0.05263158  0.00000000       0.003
   0.15789474  0.05263158  0.00000000       0.003
   0.21052632  0.05263158  0.00000000       0.003
   0.26315789  0.05263158  0.00000000       0.003
   0.31578947  0.05263158  0.00000000       0.003
   0.36842105  0.05263158  0.00000000       0.003
   0.42105263  0.05263158  0.00000000       0.003
   0.47368421  0.05263158  0.00000000       0.003
   0.10526316  0.10526316  0.00000000       0.002
   0.15789474  0.10526316  0.00000000       0.003
   0.21052632  0.10526316  0.00000000       0.003
   0.26315789  0.10526316  0.00000000       0.003
   0.31578947  0.10526316  0.00000000       0.003
   0.36842105  0.10526316  0.00000000       0.003
   0.42105263  0.10526316  0.00000000       0.003
   0.47368421  0.10526316  0.00000000       0.003
   0.15789474  0.15789474  0.00000000       0.002
   0.21052632  0.15789474  0.00000000       0.003
   0.26315789  0.15789474  0.00000000       0.003
   0.31578947  0.15789474  0.00000000       0.003
   0.36842105  0.15789474  0.00000000       0.003
   0.42105263  0.15789474  0.00000000       0.003
   0.47368421  0.15789474  0.00000000       0.003
   0.21052632  0.21052632  0.00000000       0.002
   0.26315789  0.21052632  0.00000000       0.003
   0.31578947  0.21052632  0.00000000       0.003
   0.36842105  0.21052632  0.00000000       0.003
   0.42105263  0.21052632  0.00000000       0.003
   0.47368421  0.21052632  0.00000000       0.003
   0.26315789  0.26315789  0.00000000       0.002
   0.31578947  0.26315789  0.00000000       0.003
   0.36842105  0.26315789  0.00000000       0.003
   0.42105263  0.26315789  0.00000000       0.003
   0.47368421  0.26315789  0.00000000       0.003
   0.31578947  0.31578947  0.00000000       0.002
   0.36842105  0.31578947  0.00000000       0.003
   0.42105263  0.31578947  0.00000000       0.003
   0.47368421  0.31578947  0.00000000       0.003
   0.36842105  0.36842105  0.00000000       0.002
   0.42105263  0.36842105  0.00000000       0.003
   0.47368421  0.36842105  0.00000000       0.003
   0.42105263  0.42105263  0.00000000       0.002
   0.47368421  0.42105263  0.00000000       0.003
   0.47368421  0.47368421  0.00000000       0.002
   0.05263158  0.05263158  0.05263158       0.001
   0.10526316  0.05263158  0.05263158       0.003
   0.15789474  0.05263158  0.05263158       0.003
   0.21052632  0.05263158  0.05263158       0.003
   0.26315789  0.05263158  0.05263158       0.003
   0.31578947  0.05263158  0.05263158       0.003
   0.36842105  0.05263158  0.05263158       0.003
   0.42105263  0.05263158  0.05263158       0.003
   0.47368421  0.05263158  0.05263158       0.003
   0.10526316  0.10526316  0.05263158       0.003
   0.15789474  0.10526316  0.05263158       0.007
   0.21052632  0.10526316  0.05263158       0.007
   0.26315789  0.10526316  0.05263158       0.007
   0.31578947  0.10526316  0.05263158       0.007
   0.36842105  0.10526316  0.05263158       0.007
   0.42105263  0.10526316  0.05263158       0.007
   0.47368421  0.10526316  0.05263158       0.007
   0.15789474  0.15789474  0.05263158       0.003
   0.21052632  0.15789474  0.05263158       0.007
   0.26315789  0.15789474  0.05263158       0.007
   0.31578947  0.15789474  0.05263158       0.007
   0.36842105  0.15789474  0.05263158       0.007
   0.42105263  0.15789474  0.05263158       0.007
   0.47368421  0.15789474  0.05263158       0.007
   0.21052632  0.21052632  0.05263158       0.003
   0.26315789  0.21052632  0.05263158       0.007
   0.31578947  0.21052632  0.05263158       0.007
   0.36842105  0.21052632  0.05263158       0.007
   0.42105263  0.21052632  0.05263158       0.007
   0.47368421  0.21052632  0.05263158       0.007
   0.26315789  0.26315789  0.05263158       0.003
   0.31578947  0.26315789  0.05263158       0.007
   0.36842105  0.26315789  0.05263158       0.007
   0.42105263  0.26315789  0.05263158       0.007
   0.47368421  0.26315789  0.05263158       0.007
   0.31578947  0.31578947  0.05263158       0.003
   0.36842105  0.31578947  0.05263158       0.007
   0.42105263  0.31578947  0.05263158       0.007
   0.47368421  0.31578947  0.05263158       0.007
   0.36842105  0.36842105  0.05263158       0.003
   0.42105263  0.36842105  0.05263158       0.007
   0.47368421  0.36842105  0.05263158       0.007
   0.42105263  0.42105263  0.05263158       0.003
   0.47368421  0.42105263  0.05263158       0.007
   0.47368421  0.47368421  0.05263158       0.003
   0.10526316  0.10526316  0.10526316       0.001
   0.15789474  0.10526316  0.10526316       0.003
   0.21052632  0.10526316  0.10526316       0.003
   0.26315789  0.10526316  0.10526316       0.003
   0.31578947  0.10526316  0.10526316       0.003
   0.36842105  0.10526316  0.10526316       0.003
   0.42105263  0.10526316  0.10526316       0.003
   0.47368421  0.10526316  0.10526316       0.003
   0.15789474  0.15789474  0.10526316       0.003
   0.21052632  0.15789474  0.10526316       0.007
   0.26315789  0.15789474  0.10526316       0.007
   0.31578947  0.15789474  0.10526316       0.007
   0.36842105  0.15789474  0.10526316       0.007
   0.42105263  0.15789474  0.10526316       0.007
   0.47368421  0.15789474  0.10526316       0.007
   0.21052632  0.21052632  0.10526316       0.003
   0.26315789  0.21052632  0.10526316       0.007
   0.31578947  0.21052632  0.10526316       0.007
   0.36842105  0.21052632  0.10526316       0.007
   0.42105263  0.21052632  0.10526316       0.007
   0.47368421  0.21052632  0.10526316       0.007
   0.26315789  0.26315789  0.10526316       0.003
   0.31578947  0.26315789  0.10526316       0.007
   0.36842105  0.26315789  0.10526316       0.007
   0.42105263  0.26315789  0.10526316       0.007
   0.47368421  0.26315789  0.10526316       0.007
   0.31578947  0.31578947  0.10526316       0.003
   0.36842105  0.31578947  0.10526316       0.007
   0.42105263  0.31578947  0.10526316       0.007
   0.47368421  0.31578947  0.10526316       0.007
   0.36842105  0.36842105  0.10526316       0.003
   0.42105263  0.36842105  0.10526316       0.007
   0.47368421  0.36842105  0.10526316       0.007
   0.42105263  0.42105263  0.10526316       0.003
   0.47368421  0.42105263  0.10526316       0.007
   0.47368421  0.47368421  0.10526316       0.003
   0.15789474  0.15789474  0.15789474       0.001
   0.21052632  0.15789474  0.15789474       0.003
   0.26315789  0.15789474  0.15789474       0.003
   0.31578947  0.15789474  0.15789474       0.003
   0.36842105  0.15789474  0.15789474       0.003
   0.42105263  0.15789474  0.15789474       0.003
   0.47368421  0.15789474  0.15789474       0.003
   0.21052632  0.21052632  0.15789474       0.003
   0.26315789  0.21052632  0.15789474       0.007
   0.31578947  0.21052632  0.15789474       0.007
   0.36842105  0.21052632  0.15789474       0.007
   0.42105263  0.21052632  0.15789474       0.007
   0.47368421  0.21052632  0.15789474       0.007
   0.26315789  0.26315789  0.15789474       0.003
   0.31578947  0.26315789  0.15789474       0.007
   0.36842105  0.26315789  0.15789474       0.007
   0.42105263  0.26315789  0.15789474       0.007
   0.47368421  0.26315789  0.15789474       0.007
   0.31578947  0.31578947  0.15789474       0.003
   0.36842105  0.31578947  0.15789474       0.007
   0.42105263  0.31578947  0.15789474       0.007
   0.47368421  0.31578947  0.15789474       0.007
   0.36842105  0.36842105  0.15789474       0.003
   0.42105263  0.36842105  0.15789474       0.007
   0.47368421  0.36842105  0.15789474       0.007
   0.42105263  0.42105263  0.15789474       0.003
   0.47368421  0.42105263  0.15789474       0.007
   0.47368421  0.47368421  0.15789474       0.003
   0.21052632  0.21052632  0.21052632       0.001
   0.26315789  0.21052632  0.21052632       0.003
   0.31578947  0.21052632  0.21052632       0.003
   0.36842105  0.21052632  0.21052632       0.003
   0.42105263  0.21052632  0.21052632       0.003
   0.47368421  0.21052632  0.21052632       0.003
   0.26315789  0.26315789  0.21052632       0.003
   0.31578947  0.26315789  0.21052632       0.007
   0.36842105  0.26315789  0.21052632       0.007
   0.42105263  0.26315789  0.21052632       0.007
   0.47368421  0.26315789  0.21052632       0.007
   0.31578947  0.31578947  0.21052632       0.003
   0.36842105  0.31578947  0.21052632       0.007
   0.42105263  0.31578947  0.21052632       0.007
   0.47368421  0.31578947  0.21052632       0.007
   0.36842105  0.36842105  0.21052632       0.003
   0.42105263  0.36842105  0.21052632       0.007
   0.47368421  0.36842105  0.21052632       0.007
   0.42105263  0.42105263  0.21052632       0.003
   0.47368421  0.42105263  0.21052632       0.007
   0.47368421  0.47368421  0.21052632       0.003
   0.26315789  0.26315789  0.26315789       0.001
   0.31578947  0.26315789  0.26315789       0.003
   0.36842105  0.26315789  0.26315789       0.003
   0.42105263  0.26315789  0.26315789       0.003
   0.47368421  0.26315789  0.26315789       0.003
   0.31578947  0.31578947  0.26315789       0.003
   0.36842105  0.31578947  0.26315789       0.007
   0.42105263  0.31578947  0.26315789       0.007
   0.47368421  0.31578947  0.26315789       0.007
   0.36842105  0.36842105  0.26315789       0.003
   0.42105263  0.36842105  0.26315789       0.007
   0.47368421  0.36842105  0.26315789       0.007
   0.42105263  0.42105263  0.26315789       0.003
   0.47368421  0.42105263  0.26315789       0.007
   0.47368421  0.47368421  0.26315789       0.003
   0.31578947  0.31578947  0.31578947       0.001
   0.36842105  0.31578947  0.31578947       0.003
   0.42105263  0.31578947  0.31578947       0.003
   0.47368421  0.31578947  0.31578947       0.003
   0.36842105  0.36842105  0.31578947       0.003
   0.42105263  0.36842105  0.31578947       0.007
   0.47368421  0.36842105  0.31578947       0.007
   0.42105263  0.42105263  0.31578947       0.003
   0.47368421  0.42105263  0.31578947       0.007
   0.47368421  0.47368421  0.31578947       0.003
   0.36842105  0.36842105  0.36842105       0.001
   0.42105263  0.36842105  0.36842105       0.003
   0.47368421  0.36842105  0.36842105       0.003
   0.42105263  0.42105263  0.36842105       0.003
   0.47368421  0.42105263  0.36842105       0.007
   0.47368421  0.47368421  0.36842105       0.003
   0.42105263  0.42105263  0.42105263       0.001
   0.47368421  0.42105263  0.42105263       0.003
   0.47368421  0.47368421  0.42105263       0.003
   0.47368421  0.47368421  0.47368421       0.001
 
 position of ions in fractional coordinates (direct lattice) 
   0.00000000  0.00000000  0.00000000
 
 position of ions in cartesian coordinates  (Angst):
   0.00000000  0.00000000  0.00000000
 


--------------------------------------------------------------------------------------------------------


 k-point  1 :  0.00000.00000.0000  plane waves:      33
 k-point  2 :  0.05260.00000.0000  plane waves:      33
 k-point  3 :  0.10530.00000.0000  plane waves:      33
 k-point  4 :  0.15790.00000.0000  plane waves:      36
 k-point  5 :  0.21050.00000.0000  plane waves:      36
 k-point  6 :  0.26320.00000.0000  plane waves:      36
 k-point  7 :  0.31580.00000.0000  plane waves:      40
 k-point  8 :  0.36840.00000.0000  plane waves:      40
 k-point  9 :  0.42110.00000.0000  plane waves:      44
 k-point 10 :  0.47370.00000.0000  plane waves:      44
 k-point 11 :  0.05260.05260.0000  plane waves:      33
 k-point 12 :  0.10530.05260.0000  plane waves:      34
 k-point 13 :  0.15790.05260.0000  plane waves:      35
 k-point 14 :  0.21050.05260.0000  plane waves:      37
 k-point 15 :  0.26320.05260.0000  plane waves:      37
 k-point 16 :  0.31580.05260.0000  plane waves:      39
 k-point 17 :  0.36840.05260.0000  plane waves:      39
 k-point 18 :  0.42110.05260.0000  plane waves:      41
 k-point 19 :  0.47370.05260.0000  plane waves:      44
 k-point 20 :  0.10530.10530.0000  plane waves:      35
 k-point 21 :  0.15790.10530.0000  plane waves:      36
 k-point 22 :  0.21050.10530.0000  plane waves:      37
 k-point 23 :  0.26320.10530.0000  plane waves:      36
 k-point 24 :  0.31580.10530.0000  plane waves:      38
 k-point 25 :  0.36840.10530.0000  plane waves:      40
 k-point 26 :  0.42110.10530.0000  plane waves:      40
 k-point 27 :  0.47370.10530.0000  plane waves:      40
 k-point 28 :  0.15790.15790.0000  plane waves:      37
 k-point 29 :  0.21050.15790.0000  plane waves:      37
 k-point 30 :  0.26320.15790.0000  plane waves:      38
 k-point 31 :  0.31580.15790.0000  plane waves:      40
 k-point 32 :  0.36840.15790.0000  plane waves:      40
 k-point 33 :  0.42110.15790.0000  plane waves:      40
 k-point 34 :  0.47370.15790.0000  plane waves:      38
 k-point 35 :  0.21050.21050.0000  plane waves:      37
 k-point 36 :  0.26320.21050.0000  plane waves:      38
 k-point 37 :  0.31580.21050.0000  plane waves:      40
 k-point 38 :  0.36840.21050.0000  plane waves:      42
 k-point 39 :  0.42110.21050.0000  plane waves:      42
 k-point 40 :  0.47370.21050.0000  plane waves:      42
 k-point 41 :  0.26320.26320.0000  plane waves:      37
 k-point 42 :  0.31580.26320.0000  plane waves:      42
 k-point 43 :  0.36840.26320.0000  plane waves:      44
 k-point 44 :  0.42110.26320.0000  plane waves:      42
 k-point 45 :  0.47370.26320.0000  plane waves:      42
 k-point 46 :  0.31580.31580.0000  plane waves:      41
 k-point 47 :  0.36840.31580.0000  plane waves:      40
 k-point 48 :  0.42110.31580.0000  plane waves:      42
 k-point 49 :  0.47370.31580.0000  plane waves:      42
 k-point 50 :  0.36840.36840.0000  plane waves:      39
 k-point 51 :  0.42110.36840.0000  plane waves:      42
 k-point 52 :  0.47370.36840.0000  plane waves:      42
 k-point 53 :  0.42110.42110.0000  plane waves:      39
 k-point 54 :  0.47370.42110.0000  plane waves:      42
 k-point 55 :  0.47370.47370.0000  plane waves:      39
 k-point 56 :  0.05260.05260.0526  plane waves:      33
 k-point 57 :  0.10530.05260.0526  plane waves:      35
 k-point 58 :  0.15790.05260.0526  plane waves:      34
 k-point 59 :  0.21050.05260.0526  plane waves:      38
 k-point 60 :  0.26320.05260.0526  plane waves:      38
 k-point 61 :  0.31580.05260.0526  plane waves:      38
 k-point 62 :  0.36840.05260.0526  plane waves:      39
 k-point 63 :  0.42110.05260.0526  plane waves:      39
 k-point 64 :  0.47370.05260.0526  plane waves:      43
 k-point 65 :  0.10530.10530.0526  plane waves:      35
 k-point 66 :  0.15790.10530.0526  plane waves:      35
 k-point 67 :  0.21050.10530.0526  plane waves:      38
 k-point 68 :  0.26320.10530.0526  plane waves:      37
 k-point 69 :  0.31580.10530.0526  plane waves:      37
 k-point 70 :  0.36840.10530.0526  plane waves:      38
 k-point 71 :  0.42110.10530.0526  plane waves:      39
 k-point 72 :  0.47370.10530.0526  plane waves:      39
 k-point 73 :  0.15790.15790.0526  plane waves:      35
 k-point 74 :  0.21050.15790.0526  plane waves:      37
 k-point 75 :  0.26320.15790.0526  plane waves:      38
 k-point 76 :  0.31580.15790.0526  plane waves:      39
 k-point 77 :  0.36840.15790.0526  plane waves:      40
 k-point 78 :  0.42110.15790.0526  plane waves:      40
 k-point 79 :  0.47370.15790.0526  plane waves:      38
 k-point 80 :  0.21050.21050.0526  plane waves:      39
 k-point 81 :  0.26320.21050.0526  plane waves:      40
 k-point 82 :  0.31580.21050.0526  plane waves:      40
 k-point 83 :  0.36840.21050.0526  plane waves:      41
 k-point 84 :  0.42110.21050.0526  plane waves:      41
 k-point 85 :  0.47370.21050.0526  plane waves:      39
 k-point 86 :  0.26320.26320.0526  plane waves:      41
 k-point 87 :  0.31580.26320.0526  plane waves:      43
 k-point 88 :  0.36840.26320.0526  plane waves:      42
 k-point 89 :  0.42110.26320.0526  plane waves:      41
 k-point 90 :  0.47370.26320.0526  plane waves:      40
 k-point 91 :  0.31580.31580.0526  plane waves:      42
 k-point 92 :  0.36840.31580.0526  plane waves:      42
 k-point 93 :  0.42110.31580.0526  plane waves:      42
 k-point 94 :  0.47370.31580.0526  plane waves:      41
 k-point 95 :  0.36840.36840.0526  plane waves:      41
 k-point 96 :  0.42110.36840.0526  plane waves:      41
 k-point 97 :  0.47370.36840.0526  plane waves:      42
 k-point 98 :  0.42110.42110.0526  plane waves:      41
 k-point 99 :  0.47370.42110.0526  plane waves:      42
 k-point ** :  0.47370.47370.0526  plane waves:      41
 k-point ** :  0.10530.10530.1053  plane waves:      39
 k-point ** :  0.15790.10530.1053  plane waves:      38
 k-point ** :  0.21050.10530.1053  plane waves:      40
 k-point ** :  0.26320.10530.1053  plane waves:      38
 k-point ** :  0.31580.10530.1053  plane waves:      39
 k-point ** :  0.36840.10530.1053  plane waves:      37
 k-point ** :  0.42110.10530.1053  plane waves:      37
 k-point ** :  0.47370.10530.1053  plane waves:      38
 k-point ** :  0.15790.15790.1053  plane waves:      37
 k-point ** :  0.21050.15790.1053  plane waves:      37
 k-point ** :  0.26320.15790.1053  plane waves:      38
 k-point ** :  0.31580.15790.1053  plane waves:      39
 k-point ** :  0.36840.15790.1053  plane waves:      39
 k-point ** :  0.42110.15790.1053  plane waves:      39
 k-point ** :  0.47370.15790.1053  plane waves:      40
 k-point ** :  0.21050.21050.1053  plane waves:      38
 k-point ** :  0.26320.21050.1053  plane waves:      40
 k-point ** :  0.31580.21050.1053  plane waves:      40
 k-point ** :  0.36840.21050.1053  plane waves:      39
 k-point ** :  0.42110.21050.1053  plane waves:      40
 k-point ** :  0.47370.21050.1053  plane waves:      41
 k-point ** :  0.26320.26320.1053  plane waves:      40
 k-point ** :  0.31580.26320.1053  plane waves:      40
 k-point ** :  0.36840.26320.1053  plane waves:      41
 k-point ** :  0.42110.26320.1053  plane waves:      42
 k-point ** :  0.47370.26320.1053  plane waves:      41
 k-point ** :  0.31580.31580.1053  plane waves:      39
 k-point ** :  0.36840.31580.1053  plane waves:      43
 k-point ** :  0.42110.31580.1053  plane waves:      42
 k-point ** :  0.47370.31580.1053  plane waves:      42
 k-point ** :  0.36840.36840.1053  plane waves:      41
 k-point ** :  0.42110.36840.1053  plane waves:      42
 k-point ** :  0.47370.36840.1053  plane waves:      42
 k-point ** :  0.42110.42110.1053  plane waves:      41
 k-point ** :  0.47370.42110.1053  plane waves:      42
 k-point ** :  0.47370.47370.1053  plane waves:      41
 k-point ** :  0.15790.15790.1579  plane waves:      36
 k-point ** :  0.21050.15790.1579  plane waves:      36
 k-point ** :  0.26320.15790.1579  plane waves:      39
 k-point ** :  0.31580.15790.1579  plane waves:      39
 k-point ** :  0.36840.15790.1579  plane waves:      38
 k-point ** :  0.42110.15790.1579  plane waves:      40
 k-point ** :  0.47370.15790.1579  plane waves:      42
 k-point ** :  0.21050.21050.1579  plane waves:      36
 k-point ** :  0.26320.21050.1579  plane waves:      39
 k-point ** :  0.31580.21050.1579  plane waves:      40
 k-point ** :  0.36840.21050.1579  plane waves:      40
 k-point ** :  0.42110.21050.1579  plane waves:      41
 k-point ** :  0.47370.21050.1579  plane waves:      41
 k-point ** :  0.26320.26320.1579  plane waves:      40
 k-point ** :  0.31580.26320.1579  plane waves:      41
 k-point ** :  0.36840.26320.1579  plane waves:      41
 k-point ** :  0.42110.26320.1579  plane waves:      41
 k-point ** :  0.47370.26320.1579  plane waves:      41
 k-point ** :  0.31580.31580.1579  plane waves:      40
 k-point ** :  0.36840.31580.1579  plane waves:      42
 k-point ** :  0.42110.31580.1579  plane waves:      42
 k-point ** :  0.47370.31580.1579  plane waves:      42
 k-point ** :  0.36840.36840.1579  plane waves:      42
 k-point ** :  0.42110.36840.1579  plane waves:      42
 k-point ** :  0.47370.36840.1579  plane waves:      42
 k-point ** :  0.42110.42110.1579  plane waves:      41
 k-point ** :  0.47370.42110.1579  plane waves:      42
 k-point ** :  0.47370.47370.1579  plane waves:      41
 k-point ** :  0.21050.21050.2105  plane waves:      39
 k-point ** :  0.26320.21050.2105  plane waves:      38
 k-point ** :  0.31580.21050.2105  plane waves:      40
 k-point ** :  0.36840.21050.2105  plane waves:      40
 k-point ** :  0.42110.21050.2105  plane waves:      40
 k-point ** :  0.47370.21050.2105  plane waves:      42
 k-point ** :  0.26320.26320.2105  plane waves:      38
 k-point ** :  0.31580.26320.2105  plane waves:      40
 k-point ** :  0.36840.26320.2105  plane waves:      40
 k-point ** :  0.42110.26320.2105  plane waves:      40
 k-point ** :  0.47370.26320.2105  plane waves:      41
 k-point ** :  0.31580.31580.2105  plane waves:      40
 k-point ** :  0.36840.31580.2105  plane waves:      41
 k-point ** :  0.42110.31580.2105  plane waves:      42
 k-point ** :  0.47370.31580.2105  plane waves:      40
 k-point ** :  0.36840.36840.2105  plane waves:      40
 k-point ** :  0.42110.36840.2105  plane waves:      42
 k-point ** :  0.47370.36840.2105  plane waves:      42
 k-point ** :  0.42110.42110.2105  plane waves:      41
 k-point ** :  0.47370.42110.2105  plane waves:      42
 k-point ** :  0.47370.47370.2105  plane waves:      41
 k-point ** :  0.26320.26320.2632  plane waves:      38
 k-point ** :  0.31580.26320.2632  plane waves:      38
 k-point ** :  0.36840.26320.2632  plane waves:      40
 k-point ** :  0.42110.26320.2632  plane waves:      40
 k-point ** :  0.47370.26320.2632  plane waves:      42
 k-point ** :  0.31580.31580.2632  plane waves:      38
 k-point ** :  0.36840.31580.2632  plane waves:      40
 k-point ** :  0.42110.31580.2632  plane waves:      40
 k-point ** :  0.47370.31580.2632  plane waves:      41
 k-point ** :  0.36840.36840.2632  plane waves:      40
 k-point ** :  0.42110.36840.2632  plane waves:      42
 k-point ** :  0.47370.36840.2632  plane waves:      41
 k-point ** :  0.42110.42110.2632  plane waves:      41
 k-point ** :  0.47370.42110.2632  plane waves:      42
 k-point ** :  0.47370.47370.2632  plane waves:      41
 k-point ** :  0.31580.31580.3158  plane waves:      38
 k-point ** :  0.36840.31580.3158  plane waves:      40
 k-point ** :  0.42110.31580.3158  plane waves:      40
 k-point ** :  0.47370.31580.3158  plane waves:      40
 k-point ** :  0.36840.36840.3158  plane waves:      38
 k-point ** :  0.42110.36840.3158  plane waves:      40
 k-point ** :  0.47370.36840.3158  plane waves:      40
 k-point ** :  0.42110.42110.3158  plane waves:      39
 k-point ** :  0.47370.42110.3158  plane waves:      41
 k-point ** :  0.47370.47370.3158  plane waves:      41
 k-point ** :  0.36840.36840.3684  plane waves:      38
 k-point ** :  0.42110.36840.3684  plane waves:      38
 k-point ** :  0.47370.36840.3684  plane waves:      40
 k-point ** :  0.42110.42110.3684  plane waves:      38
 k-point ** :  0.47370.42110.3684  plane waves:      39
 k-point ** :  0.47370.47370.3684  plane waves:      41
 k-point ** :  0.42110.42110.4211  plane waves:      38
 k-point ** :  0.47370.42110.4211  plane waves:      36
 k-point ** :  0.47370.47370.4211  plane waves:      36
 k-point ** :  0.47370.47370.4737  plane waves:      32

 maximum and minimum number of plane-waves per node :        16        4

 maximum number of plane-waves:        44
 maximum index in each direction: 
   IXMAX=    2   IYMAX=    2   IZMAX=    2
   IXMIN=   -2   IYMIN=   -2   IZMIN=   -2

 WARNING: aliasing errors must be expected set NGX to  10 to avoid them
 WARNING: aliasing errors must be expected set NGY to  10 to avoid them
 WARNING: aliasing errors must be expected set NGZ to  10 to avoid them
 aliasing errors are usually negligible using standard VASP settings
 and one can safely disregard these warnings

 real space projection operators:
  total allocation   :         39.88 KBytes
  max/ min on nodes  :         12.97          6.95


 parallel 3D FFT for wavefunctions:
    minimum data exchange during FFTs selected (reduces bandwidth)
 parallel 3D FFT for charge:
    minimum data exchange during FFTs selected (reduces bandwidth)


 total amount of memory used by VASP on root node    30135. kBytes
========================================================================

   base      :      30000. kBytes
   nonlr-proj:         32. kBytes
   fftplans  :         22. kBytes
   grid      :         10. kBytes
   one-center:          1. kBytes
   wavefun   :         70. kBytes
 
 Broyden mixing: mesh for mixing (old mesh)
   NGX =  5   NGY =  5   NGZ =  5
  (NGX  = 12   NGY  = 12   NGZ  = 12)
  gives a total of    125 points

 initial charge density was supplied:
 charge density of overlapping atoms calculated
 number of electron       1.0000000 magnetization 
 keeping initial charge density in first step


--------------------------------------------------------------------------------------------------------


 Maximum index for non-local projection operator          317
 Maximum index for augmentation-charges          278 (set IRDMAX)


--------------------------------------------------------------------------------------------------------


 First call to EWALD:  gamma=   1.229
 Maximum number of real-space cells 3x 3x 3
 Maximum number of reciprocal cells 3x 3x 3

    FEWALD:  cpu time    0.00: real time    0.00


----------------------------------------- Iteration    1(   1)  ---------------------------------------


    POTLOK:  cpu time    0.00: real time    0.00
    SETDIJ:  cpu time    0.00: real time    0.00
     EDDAV:  cpu time    0.22: real time    0.45
       DOS:  cpu time    0.00: real time    0.00
    --------------------------------------------
      LOOP:  cpu time    0.22: real time    0.45

 eigenvalue-minimisations  :  2148
 total energy-change (2. order) :-0.2265885E+01  (-0.1242842E+02)
 number of electron       1.0000000 magnetization 
 augmentation part        1.0000000 magnetization 

 Free energy of the ion-electron system (eV)
  ---------------------------------------------------
  alpha Z        PSCENC =         0.81211767
  Ewald energy   TEWEN  =       -14.16444434
  -1/2 Hartree   DENC   =        -0.30379296
  -exchange  EXHF       =         0.00000000
  -V(xc)+E(xc)   XCENC  =         2.73458007
  PAW double counting   =         0.78132571       -0.79033343
  entropy T*S    EENTRO =        -0.00033934
  eigenvalues    EBANDS =        -3.79396333
  atomic energy  EATOM  =        12.45896517
  ---------------------------------------------------
  free energy    TOTEN  =        -2.26588479 eV

  energy without entropy =       -2.26554545  energy(sigma->0) =       -2.26571512


--------------------------------------------------------------------------------------------------------




----------------------------------------- Iteration    1(   2)  ---------------------------------------


     EDDAV:  cpu time    0.22: real time    0.44
       DOS:  cpu time    0.00: real time    0.00
    --------------------------------------------
      LOOP:  cpu time    0.22: real time    0.45

 eigenvalue-minimisations  :  2148
 total energy-change (2. order) :-0.1982266E-01  (-0.1982170E-01)
 number of electron       1.0000000 magnetization 
 augmentation part        1.0000000 magnetization 

 Free energy of the ion-electron system (eV)
  ---------------------------------------------------
  alpha Z        PSCENC =         0.81211767
  Ewald energy   TEWEN  =       -14.16444434
  -1/2 Hartree   DENC   =        -0.30379296
  -exchange  EXHF       =         0.00000000
  -V(xc)+E(xc)   XCENC  =         2.73458007
  PAW double counting   =         0.78132571       -0.79033343
  entropy T*S    EENTRO =        -0.00035659
  eigenvalues    EBANDS =        -3.81376875
  atomic energy  EATOM  =        12.45896517
  ---------------------------------------------------
  free energy    TOTEN  =        -2.28570745 eV

  energy without entropy =       -2.28535086  energy(sigma->0) =       -2.28552916


--------------------------------------------------------------------------------------------------------




----------------------------------------- Iteration    1(   3)  ---------------------------------------


     EDDAV:  cpu time    0.23: real time    0.46
       DOS:  cpu time    0.00: real time    0.00
    --------------------------------------------
      LOOP:  cpu time    0.23: real time    0.46

 eigenvalue-minimisations  :  2036
 total energy-change (2. order) :-0.4129699E-05  (-0.4129531E-05)
 number of electron       1.0000000 magnetization 
 augmentation part        1.0000000 magnetization 

 Free energy of the ion-electron system (eV)
  ---------------------------------------------------
  alpha Z        PSCENC =         0.81211767
  Ewald energy   TEWEN  =       -14.16444434
  -1/2 Hartree   DENC   =        -0.30379296
  -exchange  EXHF       =         0.00000000
  -V(xc)+E(xc)   XCENC  =         2.73458007
  PAW double counting   =         0.78132571       -0.79033343
  entropy T*S    EENTRO =        -0.00035659
  eigenvalues    EBANDS =        -3.81377288
  atomic energy  EATOM  =        12.45896517
  ---------------------------------------------------
  free energy    TOTEN  =        -2.28571158 eV

  energy without entropy =       -2.28535499  energy(sigma->0) =       -2.28553328


--------------------------------------------------------------------------------------------------------




----------------------------------------- Iteration    1(   4)  ---------------------------------------


     EDDAV:  cpu time    0.19: real time    0.39
       DOS:  cpu time    0.00: real time    0.00
    --------------------------------------------
      LOOP:  cpu time    0.20: real time    0.39

 eigenvalue-minimisations  :  1848
 total energy-change (2. order) : 0.8553869E-10  (-0.3364714E-10)
 number of electron       1.0000000 magnetization 
 augmentation part        1.0000000 magnetization 

 Free energy of the ion-electron system (eV)
  ---------------------------------------------------
  alpha Z        PSCENC =         0.81211767
  Ewald energy   TEWEN  =       -14.16444434
  -1/2 Hartree   DENC   =        -0.30379296
  -exchange  EXHF       =         0.00000000
  -V(xc)+E(xc)   XCENC  =         2.73458007
  PAW double counting   =         0.78132571       -0.79033343
  entropy T*S    EENTRO =        -0.00035659
  eigenvalues    EBANDS =        -3.81377288
  atomic energy  EATOM  =        12.45896517
  ---------------------------------------------------
  free energy    TOTEN  =        -2.28571158 eV

  energy without entropy =       -2.28535499  energy(sigma->0) =       -2.28553328


--------------------------------------------------------------------------------------------------------




----------------------------------------- Iteration    1(   5)  ---------------------------------------


     EDDAV:  cpu time    0.14: real time    0.28
       DOS:  cpu time    0.00: real time    0.00
    CHARGE:  cpu time    0.00: real time    0.00
    MIXING:  cpu time    0.00: real time    0.00
    --------------------------------------------
      LOOP:  cpu time    0.14: real time    0.29

 eigenvalue-minimisations  :  1204
 total energy-change (2. order) :-0.1757385E-09  (-0.1206569E-14)
 number of electron       1.0000000 magnetization 
 augmentation part        0.0141556 magnetization 

 Broyden mixing:
  rms(total) = 0.26786E-01    rms(broyden)= 0.26673E-01
  rms(prec ) = 0.11136E+00
  weight for this iteration     100.00

 Free energy of the ion-electron system (eV)
  ---------------------------------------------------
  alpha Z        PSCENC =         0.81211767
  Ewald energy   TEWEN  =       -14.16444434
  -1/2 Hartree   DENC   =        -0.30379296
  -exchange  EXHF       =         0.00000000
  -V(xc)+E(xc)   XCENC  =         2.73458007
  PAW double counting   =         0.78132571       -0.79033343
  entropy T*S    EENTRO =        -0.00035659
  eigenvalues    EBANDS =        -3.81377288
  atomic energy  EATOM  =        12.45896517
  ---------------------------------------------------
  free energy    TOTEN  =        -2.28571158 eV

  energy without entropy =       -2.28535499  energy(sigma->0) =       -2.28553328


--------------------------------------------------------------------------------------------------------




----------------------------------------- Iteration    1(   6)  ---------------------------------------


    POTLOK:  cpu time    0.00: real time    0.00
    SETDIJ:  cpu time    0.00: real time    0.00
     EDDAV:  cpu time    0.21: real time    0.41
       DOS:  cpu time    0.00: real time    0.00
    CHARGE:  cpu time    0.00: real time    0.00
    MIXING:  cpu time    0.00: real time    0.00
    --------------------------------------------
      LOOP:  cpu time    0.21: real time    0.42

 eigenvalue-minimisations  :  1996
 total energy-change (2. order) :-0.1446321E-02  (-0.1070474E-04)
 number of electron       1.0000000 magnetization 
 augmentation part        0.0141562 magnetization 

 Broyden mixing:
  rms(total) = 0.16832E-01    rms(broyden)= 0.16825E-01
  rms(prec ) = 0.70593E-01
  weight for this iteration     100.00

 eigenvalues of (default mixing * dielectric matrix)
  average eigenvalue GAMMA=   2.7048
  2.7048

 Free energy of the ion-electron system (eV)
  ---------------------------------------------------
  alpha Z        PSCENC =         0.81211767
  Ewald energy   TEWEN  =       -14.16444434
  -1/2 Hartree   DENC   =        -0.32497103
  -exchange  EXHF       =         0.00000000
  -V(xc)+E(xc)   XCENC  =         2.74008772
  PAW double counting   =         1.14325714       -1.15340849
  entropy T*S    EENTRO =        -0.00036180
  eigenvalues    EBANDS =        -3.79839994
  atomic energy  EATOM  =        12.45896517
  ---------------------------------------------------
  free energy    TOTEN  =        -2.28715790 eV

  energy without entropy =       -2.28679610  energy(sigma->0) =       -2.28697700


--------------------------------------------------------------------------------------------------------




----------------------------------------- Iteration    1(   7)  ---------------------------------------


    POTLOK:  cpu time    0.00: real time    0.00
[...]
      2      21.4744      0.00000
      3      33.6659      0.00000
      4      41.2221      0.00000

 k-point 162 :       0.4211    0.4211    0.1579
  band No.  band energies     occupation 
      1      10.9297      0.00000
      2      25.4468      0.00000
      3      28.8632      0.00000
      4      40.0296      0.00000

 k-point 163 :       0.4737    0.4211    0.1579
  band No.  band energies     occupation 
      1      12.5605      0.00000
      2      24.3472      0.00000
      3      30.0488      0.00000
      4      36.7161      0.00000

 k-point 164 :       0.4737    0.4737    0.1579
  band No.  band energies     occupation 
      1      14.0506      0.00000
      2      26.9642      0.00000
      3      28.0524      0.00000
      4      33.0306      0.00000

 k-point 165 :       0.2105    0.2105    0.2105
  band No.  band energies     occupation 
      1      -4.3196      2.00000
      2      34.4294      0.00000
      3      41.6260      0.00000
      4      41.6260      0.00000

 k-point 166 :       0.2632    0.2105    0.2105
  band No.  band energies     occupation 
      1      -2.6042      2.00000
      2      31.8304      0.00000
      3      40.2064      0.00000
      4      43.4298      0.00000

 k-point 167 :       0.3158    0.2105    0.2105
  band No.  band energies     occupation 
      1      -0.5602      2.00000
      2      27.3713      0.00000
      3      41.4110      0.00000
      4      45.6246      0.00000

 k-point 168 :       0.3684    0.2105    0.2105
  band No.  band energies     occupation 
      1       1.7625      2.00000
      2      22.9109      0.00000
      3      43.4217      0.00000
      4      48.1942      0.00000

 k-point 169 :       0.4211    0.2105    0.2105
  band No.  band energies     occupation 
      1       4.1820      0.00000
      2      18.9987      0.00000
      3      45.6567      0.00000
      4      51.0814      0.00000

 k-point 170 :       0.4737    0.2105    0.2105
  band No.  band energies     occupation 
      1       6.0906      0.00000
      2      16.3195      0.00000
      3      47.4199      0.00000
      4      53.9301      0.00000

 k-point 171 :       0.2632    0.2632    0.2105
  band No.  band energies     occupation 
      1      -0.8994      2.00000
      2      31.8769      0.00000
      3      37.5732      0.00000
      4      43.8056      0.00000

 k-point 172 :       0.3158    0.2632    0.2105
  band No.  band energies     occupation 
      1       1.1359      2.00000
      2      28.7716      0.00000
      3      37.6597      0.00000
      4      45.7704      0.00000

 k-point 173 :       0.3684    0.2632    0.2105
  band No.  band energies     occupation 
      1       3.4444      0.00000
      2      24.5690      0.00000
      3      39.5649      0.00000
      4      48.1879      0.00000

 k-point 174 :       0.4211    0.2632    0.2105
  band No.  band energies     occupation 
      1       5.8397      0.00000
      2      20.7452      0.00000
      3      41.9023      0.00000
      4      50.8373      0.00000

 k-point 175 :       0.4737    0.2632    0.2105
  band No.  band energies     occupation 
      1       7.7170      0.00000
      2      18.1227      0.00000
      3      43.8721      0.00000
      4      52.6703      0.00000

 k-point 176 :       0.3158    0.3158    0.2105
  band No.  band energies     occupation 
      1       3.1621      0.00000
      2      29.2395      0.00000
      3      34.3243      0.00000
      4      47.5950      0.00000

 k-point 177 :       0.3684    0.3158    0.2105
  band No.  band energies     occupation 
      1       5.4459      0.00000
      2      26.4063      0.00000
      3      34.9555      0.00000
      4      49.8011      0.00000

 k-point 178 :       0.4211    0.3158    0.2105
  band No.  band energies     occupation 
      1       7.8001      0.00000
      2      22.8292      0.00000
      3      37.1887      0.00000
      4      50.1952      0.00000

 k-point 179 :       0.4737    0.3158    0.2105
  band No.  band energies     occupation 
      1       9.6350      0.00000
      2      20.3142      0.00000
      3      39.3005      0.00000
      4      47.5856      0.00000

 k-point 180 :       0.3684    0.3684    0.2105
  band No.  band energies     occupation 
      1       7.6995      0.00000
      2      27.3814      0.00000
      3      31.8921      0.00000
      4      49.5564      0.00000

 k-point 181 :       0.4211    0.3684    0.2105
  band No.  band energies     occupation 
      1       9.9915      0.00000
      2      25.1394      0.00000
      3      32.9134      0.00000
      4      45.6860      0.00000

 k-point 182 :       0.4737    0.3684    0.2105
  band No.  band energies     occupation 
      1      11.7312      0.00000
      2      22.8771      0.00000
      3      34.9766      0.00000
      4      42.6181      0.00000

 k-point 183 :       0.4211    0.4211    0.2105
  band No.  band energies     occupation 
      1      12.1887      0.00000
      2      26.7915      0.00000
      3      30.2694      0.00000
      4      41.4053      0.00000

 k-point 184 :       0.4737    0.4211    0.2105
  band No.  band energies     occupation 
      1      13.7917      0.00000
      2      25.7478      0.00000
      3      31.4189      0.00000
      4      38.1200      0.00000

 k-point 185 :       0.4737    0.4737    0.2105
  band No.  band energies     occupation 
      1      15.2559      0.00000
      2      28.3625      0.00000
      3      29.4586      0.00000
      4      34.4416      0.00000

 k-point 186 :       0.2632    0.2632    0.2632
  band No.  band energies     occupation 
      1       0.7994      2.00000
      2      32.3037      0.00000
      3      39.3769      0.00000
      4      39.3769      0.00000

 k-point 187 :       0.3158    0.2632    0.2632
  band No.  band energies     occupation 
      1       2.8301      0.00000
      2      30.1363      0.00000
      3      38.3353      0.00000
      4      41.5718      0.00000

 k-point 188 :       0.3684    0.2632    0.2632
  band No.  band energies     occupation 
      1       5.1186      0.00000
      2      26.2112      0.00000
      3      39.8287      0.00000
      4      44.1410      0.00000

 k-point 189 :       0.4211    0.2632    0.2632
  band No.  band energies     occupation 
      1       7.4881      0.00000
      2      22.4872      0.00000
      3      41.9421      0.00000
      4      47.0281      0.00000

 k-point 190 :       0.4737    0.2632    0.2632
  band No.  band energies     occupation 
      1       9.3253      0.00000
      2      19.9213      0.00000
      3      43.6911      0.00000
      4      49.8765      0.00000

 k-point 191 :       0.3158    0.3158    0.2632
  band No.  band energies     occupation 
      1       4.8463      0.00000
      2      30.5969      0.00000
      3      36.1343      0.00000
      4      42.3134      0.00000

 k-point 192 :       0.3684    0.3158    0.2632
  band No.  band energies     occupation 
      1       7.1109      0.00000
      2      28.0180      0.00000
      3      36.5700      0.00000
      4      44.6081      0.00000

 k-point 193 :       0.4211    0.3158    0.2632
  band No.  band energies     occupation 
      1       9.4404      0.00000
      2      24.5683      0.00000
      3      38.6531      0.00000
      4      47.2267      0.00000

 k-point 194 :       0.4737    0.3158    0.2632
  band No.  band energies     occupation 
      1      11.2259      0.00000
      2      22.1138      0.00000
      3      40.5979      0.00000
      4      49.0488      0.00000

 k-point 195 :       0.3684    0.3684    0.2632
  band No.  band energies     occupation 
      1       9.3428      0.00000
      2      28.9638      0.00000
      3      33.6958      0.00000
      4      46.6403      0.00000

 k-point 196 :       0.4211    0.3684    0.2632
  band No.  band energies     occupation 
      1      11.6007      0.00000
      2      26.8596      0.00000
      3      34.6273      0.00000
      4      47.0806      0.00000

 k-point 197 :       0.4737    0.3684    0.2632
  band No.  band energies     occupation 
      1      13.3080      0.00000
      2      24.6759      0.00000
      3      36.6073      0.00000
      4      44.3950      0.00000

 k-point 198 :       0.4211    0.4211    0.2632
  band No.  band energies     occupation 
      1      13.7671      0.00000
      2      28.4958      0.00000
      3      32.0731      0.00000
      4      43.1376      0.00000

 k-point 199 :       0.4737    0.4211    0.2632
  band No.  band energies     occupation 
      1      15.3287      0.00000
      2      27.5428      0.00000
      3      33.1620      0.00000
      4      39.9179      0.00000

 k-point 200 :       0.4737    0.4737    0.2632
  band No.  band energies     occupation 
      1      16.7544      0.00000
      2      30.1540      0.00000
      3      31.2622      0.00000
      4      36.2528      0.00000

 k-point 201 :       0.3158    0.3158    0.3158
  band No.  band energies     occupation 
      1       6.8463      0.00000
      2      31.4221      0.00000
      3      38.3290      0.00000
      4      38.3290      0.00000

 k-point 202 :       0.3684    0.3158    0.3158
  band No.  band energies     occupation 
      1       9.0847      0.00000
      2      29.7648      0.00000
      3      37.6215      0.00000
      4      40.8980      0.00000

 k-point 203 :       0.4211    0.3158    0.3158
  band No.  band energies     occupation 
      1      11.3709      0.00000
      2      26.6351      0.00000
      3      39.2463      0.00000
      4      43.7849      0.00000

 k-point 204 :       0.4737    0.3158    0.3158
  band No.  band energies     occupation 
      1      13.1036      0.00000
      2      24.3051      0.00000
      3      40.9159      0.00000
      4      46.6359      0.00000

 k-point 205 :       0.3684    0.3684    0.3158
  band No.  band energies     occupation 
      1      11.2947      0.00000
      2      30.7171      0.00000
      3      35.8968      0.00000
      4      41.9569      0.00000

 k-point 206 :       0.4211    0.3684    0.3158
  band No.  band energies     occupation 
      1      13.5046      0.00000
      2      28.9045      0.00000
      3      36.6041      0.00000
      4      44.4471      0.00000

 k-point 207 :       0.4737    0.3684    0.3158
  band No.  band energies     occupation 
      1      15.1494      0.00000
      2      26.8623      0.00000
      3      38.3816      0.00000
      4      46.2550      0.00000

 k-point 208 :       0.4211    0.4211    0.3158
  band No.  band energies     occupation 
      1      15.6209      0.00000
      2      30.5287      0.00000
      3      34.2690      0.00000
      4      44.9415      0.00000

 k-point 209 :       0.4737    0.4211    0.3158
  band No.  band energies     occupation 
      1      17.1180      0.00000
      2      29.7245      0.00000
      3      35.2514      0.00000
      4      42.0946      0.00000

 k-point 210 :       0.4737    0.4737    0.3158
  band No.  band energies     occupation 
      1      18.4818      0.00000
      2      32.3291      0.00000
      3      33.4570      0.00000
      4      38.4594      0.00000

 k-point 211 :       0.3684    0.3684    0.3684
  band No.  band energies     occupation 
      1      13.4506      0.00000
      2      32.0031      0.00000
      3      38.4660      0.00000
      4      38.4660      0.00000

 k-point 212 :       0.4211    0.3684    0.3684
  band No.  band energies     occupation 
      1      15.5961      0.00000
      2      31.1366      0.00000
      3      38.0179      0.00000
      4      41.3527      0.00000

 k-point 213 :       0.4737    0.3684    0.3684
  band No.  band energies     occupation 
      1      17.1374      0.00000
      2      29.4190      0.00000
      3      39.3031      0.00000
      4      44.2030      0.00000

 k-point 214 :       0.4211    0.4211    0.3684
  band No.  band energies     occupation 
      1      17.6255      0.00000
      2      32.7638      0.00000
      3      36.8445      0.00000
      4      42.5926      0.00000

 k-point 215 :       0.4737    0.4211    0.3684
  band No.  band energies     occupation 
      1      19.0420      0.00000
      2      32.2717      0.00000
      3      37.5713      0.00000
      4      44.3342      0.00000

 k-point 216 :       0.4737    0.4737    0.3684
  band No.  band energies     occupation 
      1      20.3128      0.00000
      2      34.8637      0.00000
      3      36.0262      0.00000
      4      41.0461      0.00000

 k-point 217 :       0.4211    0.4211    0.4211
  band No.  band energies     occupation 
      1      19.5364      0.00000
      2      34.7265      0.00000
      3      39.7310      0.00000
      4      39.7310      0.00000

 k-point 218 :       0.4737    0.4211    0.4211
  band No.  band energies     occupation 
      1      20.8577      0.00000
      2      35.1093      0.00000
      3      39.3615      0.00000
      4      42.5881      0.00000

 k-point 219 :       0.4737    0.4737    0.4211
  band No.  band energies     occupation 
      1      22.0422      0.00000
      2      37.6897      0.00000
      3      38.9204      0.00000
      4      43.4935      0.00000

 k-point 220 :       0.4737    0.4737    0.4737
  band No.  band energies     occupation 
      1      23.1707      0.00000
      2      40.3597      0.00000
      3      41.7782      0.00000
      4      41.7782      0.00000


--------------------------------------------------------------------------------------------------------


 soft charge-density along one line, spin component           1
         0         1         2         3         4         5         6         7         8         9
 total charge-density along one line
 
 pseudopotential strength for first ion, spin component:           1
 -2.263   0.001   0.000  -0.000  -0.000
  0.001   0.049   0.000  -0.000  -0.000
  0.000   0.000  -0.364  -0.000   0.000
 -0.000  -0.000  -0.000  -0.364  -0.000
 -0.000  -0.000   0.000  -0.000  -0.364
 total augmentation occupancy for first ion, spin component:           1
  1.171  -0.409   0.000   0.000   0.000
 -0.409   0.212   0.000   0.000   0.000
  0.000   0.000   0.013   0.000   0.000
  0.000   0.000  -0.000   0.013   0.000
  0.000   0.000   0.000   0.000   0.013


------------------------ aborting loop because EDIFF is reached ----------------------------------------


 


 total charge     
 
# of ion     s       p       d       tot
----------------------------------------
  1        0.436   0.023   0.000   0.459
 
    CHARGE:  cpu time    0.00: real time    0.00
    FORLOC:  cpu time    0.00: real time    0.00
    FORNL :  cpu time    0.04: real time    0.08
    STRESS:  cpu time    0.12: real time    0.24
    FORHAR:  cpu time    0.00: real time    0.00
    MIXING:  cpu time    0.00: real time    0.00

  FORCE on cell =-STRESS in cart. coord.  units (eV):
  Direction    XX          YY          ZZ          XY          YZ          ZX
  --------------------------------------------------------------------------------------
  Alpha Z     0.82684     0.82684     0.82684
  Ewald      -4.74984    -4.74984    -4.74984     0.00000    -0.00000     0.00000
  Hartree     0.11999     0.11999     0.11999    -0.00000    -0.00000    -0.00000
  E(xc)      -2.82298    -2.82298    -2.82298     0.00000    -0.00000     0.00000
  Local      -0.20866    -0.20866    -0.20866    -0.00000     0.00000    -0.00000
  n-local    -1.93342    -2.09517    -2.14038     0.04564     0.01602     0.02104
  augment     0.08953     0.08953     0.08953     0.00000     0.00000     0.00000
  Kinetic    17.14319     6.35581     2.90803     6.12275     1.83950     2.75441
  Fock        0.00000     0.00000     0.00000     0.00000     0.00000     0.00000
  -------------------------------------------------------------------------------------
  Total       0.00089     0.00089     0.00089     0.00000     0.00000    -0.00000
  in kB       0.48494     0.48494     0.48494     0.00000     0.00000    -0.00000
  external pressure =        0.48 kB  Pullay stress =        0.00 kB


 VOLUME and BASIS-vectors are now :
 -----------------------------------------------------------------------------
  energy-cutoff  :      325.00
  volume of cell :        2.95
      direct lattice vectors                 reciprocal lattice vectors
     1.433610102  0.000000000  0.000000000     0.697539728 -0.000000000 -0.000000000
     0.000000000  1.433610102  0.000000000    -0.000000000  0.697539728  0.000000000
     0.000000000 -0.000000000  1.433610102    -0.000000000 -0.000000000  0.697539728

  length of vectors
     1.433610102  1.433610102  1.433610102     0.697539728  0.697539728  0.697539728


 FORCES acting on ions
    electron-ion (+dipol)            ewald-force                    non-local-force                 convergence-correction
 -----------------------------------------------------------------------------------------------
   0.195E-16 0.205E-16 -.742E-16   -.222E-16 0.339E-16 0.317E-16   0.270E-26 0.524E-25 -.517E-25   0.846E-17 -.563E-17 -.119E-16
 -----------------------------------------------------------------------------------------------
   0.195E-16 0.205E-16 -.742E-16   -.222E-16 0.339E-16 0.317E-16   0.270E-26 0.524E-25 -.517E-25   0.846E-17 -.563E-17 -.119E-16
 
 
 POSITION                                       TOTAL-FORCE (eV/Angst)
 -----------------------------------------------------------------------------------
      0.00000      0.00000      0.00000         0.000000     -0.000000      0.000000
 -----------------------------------------------------------------------------------
    total drift:                                0.000000      0.000000     -0.000000


--------------------------------------------------------------------------------------------------------



  FREE ENERGIE OF THE ION-ELECTRON SYSTEM (eV)
  ---------------------------------------------------
  free  energy   TOTEN  =        -2.288427 eV

  energy  without entropy=       -2.288083  energy(sigma->0) =       -2.288255
 
 d Force = 0.0000000E+00[ 0.000E+00, 0.000E+00]  d Energy = 0.1507071E-03-0.151E-03
 d Force = 0.0000000E+00[ 0.000E+00, 0.000E+00]  d Ewald  = 0.5876741E-01-0.588E-01


--------------------------------------------------------------------------------------------------------


    POTLOK:  cpu time    0.00: real time    0.01


--------------------------------------------------------------------------------------------------------




--------------------------------------------------------------------------------------------------------


  
 reached required accuracy - stopping structural energy minimisation
     LOOP+:  cpu time    0.56: real time    1.12
    4ORBIT:  cpu time    0.00: real time    0.00
 


 total charge     
 
# of ion     s       p       d       tot
----------------------------------------
  1        0.436   0.023   0.000   0.459
 

 total amount of memory used by VASP on root node    30135. kBytes
========================================================================

   base      :      30000. kBytes
   nonlr-proj:         32. kBytes
   fftplans  :         22. kBytes
   grid      :         10. kBytes
   one-center:          1. kBytes
   wavefun   :         70. kBytes
 
  
  
 General timing and accounting informations for this job:
 ========================================================
  
                  Total CPU time used (sec):        3.251
                            User time (sec):        2.733
                          System time (sec):        0.518
                         Elapsed time (sec):        6.570
  
                   Maximum memory used (kb):       21840.
                   Average memory used (kb):           0.
  
                          Minor page faults:         4057
                          Major page faults:            0
                 Voluntary context switches:           24
