<?xml version="1.0" encoding="ISO-8859-1"?>
<modeling>
 <generator>
  <i name="program" type="string">vasp </i>
  <i name="version" type="string">5.2.12  </i>
  <i name="subversion" type="string">11Nov11 complex                                                      parallel </i>
  <i name="platform" type="string">LinuxIFC </i>
  <i name="date" type="string">2018 01 16 </i>
  <i name="time" type="string">20:02:19 </i>
 </generator>
 <incar>
  <i type="string" name="SYSTEM"> jump2</i>
  <i type="int" name="ISTART">     0</i>
  <i type="string" name="PREC">normal</i>
  <i type="string" name="ALGO"> 48</i>
  <i type="logical" name="ADDGRID"> T  </i>
  <i name="AMIN">      0.01000000</i>
  <i type="int" name="ICHARG">     2</i>
  <i type="int" name="IBRION">     2</i>
  <i name="EDIFF">      0.00010000</i>
  <i name="EDIFFG">     -0.01000000</i>
  <i type="int" name="NSW">    30</i>
  <i type="int" name="ISIF">     3</i>
  <i name="ENCUT">    325.00000000</i>
  <i type="string" name="LREAL"> Auto</i>
  <i type="logical" name="LPLANE"> T  </i>
  <i type="int" name="ISMEAR">     0</i>
  <i name="SIGMA">      0.10000000</i>
  <i name="KSPACING">      0.23000000</i>
  <i type="logical" name="LWAVE"> F  </i>
  <i type="logical" name="LCHARG"> T  </i>
  <i type="logical" name="LVTOT"> F  </i>
  <i type="logical" name="LVHAR"> F  </i>
  <i type="logical" name="LORBIT"> F  </i>
 </incar>
 <kpoints>
  <generation param="Gamma">
   <v type="int" name="divisions">      19       19       19 </v>
   <v name="usershift">      0.00000000       0.00000000       0.00000000 </v>
   <v name="genvec1">      0.05263158       0.00000000       0.00000000 </v>
   <v name="genvec2">      0.00000000       0.05263158       0.00000000 </v>
   <v name="genvec3">      0.00000000       0.00000000       0.05263158 </v>
   <v name="shift">      0.00000000       0.00000000       0.00000000 </v>
  </generation>
  <varray name="kpointlist" >
   <v>       0.00000000       0.00000000       0.00000000 </v>
   <v>       0.05263158       0.00000000       0.00000000 </v>
   <v>       0.10526316       0.00000000       0.00000000 </v>
   <v>       0.15789474       0.00000000       0.00000000 </v>
   <v>       0.21052632       0.00000000       0.00000000 </v>
   <v>       0.26315789       0.00000000       0.00000000 </v>
   <v>       0.31578947       0.00000000       0.00000000 </v>
   <v>       0.36842105       0.00000000       0.00000000 </v>
   <v>       0.42105263       0.00000000       0.00000000 </v>
   <v>       0.47368421       0.00000000       0.00000000 </v>
   <v>       0.05263158       0.05263158       0.00000000 </v>
   <v>       0.10526316       0.05263158       0.00000000 </v>
   <v>       0.15789474       0.05263158       0.00000000 </v>
   <v>       0.21052632       0.05263158       0.00000000 </v>
   <v>       0.26315789       0.05263158       0.00000000 </v>
   <v>       0.31578947       0.05263158       0.00000000 </v>
   <v>       0.36842105       0.05263158       0.00000000 </v>
   <v>       0.42105263       0.05263158       0.00000000 </v>
   <v>       0.47368421       0.05263158       0.00000000 </v>
   <v>       0.10526316       0.10526316       0.00000000 </v>
   <v>       0.15789474       0.10526316       0.00000000 </v>
   <v>       0.21052632       0.10526316       0.00000000 </v>
   <v>       0.26315789       0.10526316       0.00000000 </v>
   <v>       0.31578947       0.10526316       0.00000000 </v>
   <v>       0.36842105       0.10526316       0.00000000 </v>
   <v>       0.42105263       0.10526316       0.00000000 </v>
   <v>       0.47368421       0.10526316       0.00000000 </v>
   <v>       0.15789474       0.15789474       0.00000000 </v>
   <v>       0.21052632       0.15789474       0.00000000 </v>
   <v>       0.26315789       0.15789474       0.00000000 </v>
   <v>       0.31578947       0.15789474       0.00000000 </v>
   <v>       0.36842105       0.15789474       0.00000000 </v>
   <v>       0.42105263       0.15789474       0.00000000 </v>
   <v>       0.47368421       0.15789474       0.00000000 </v>
   <v>       0.21052632       0.21052632       0.00000000 </v>
   <v>       0.26315789       0.21052632       0.00000000 </v>
   <v>       0.31578947       0.21052632       0.00000000 </v>
   <v>       0.36842105       0.21052632       0.00000000 </v>
   <v>       0.42105263       0.21052632       0.00000000 </v>
   <v>       0.47368421       0.21052632       0.00000000 </v>
   <v>       0.26315789       0.26315789       0.00000000 </v>
   <v>       0.31578947       0.26315789       0.00000000 </v>
   <v>       0.36842105       0.26315789       0.00000000 </v>
   <v>       0.42105263       0.26315789       0.00000000 </v>
   <v>       0.47368421       0.26315789       0.00000000 </v>
   <v>       0.31578947       0.31578947       0.00000000 </v>
   <v>       0.36842105       0.31578947       0.00000000 </v>
   <v>       0.42105263       0.31578947       0.00000000 </v>
   <v>       0.47368421       0.31578947       0.00000000 </v>
   <v>       0.36842105       0.36842105       0.00000000 </v>
   <v>       0.42105263       0.36842105       0.00000000 </v>
   <v>       0.47368421       0.36842105       0.00000000 </v>
   <v>       0.42105263       0.42105263       0.00000000 </v>
   <v>       0.47368421       0.42105263       0.00000000 </v>
   <v>       0.47368421       0.47368421       0.00000000 </v>
   <v>       0.05263158       0.05263158       0.05263158 </v>
   <v>       0.10526316       0.05263158       0.05263158 </v>
   <v>       0.15789474       0.05263158       0.05263158 </v>
   <v>       0.21052632       0.05263158       0.05263158 </v>
   <v>       0.26315789       0.05263158       0.05263158 </v>
   <v>       0.31578947       0.05263158       0.05263158 </v>
   <v>       0.36842105       0.05263158       0.05263158 </v>
   <v>       0.42105263       0.05263158       0.05263158 </v>
   <v>       0.47368421       0.05263158       0.05263158 </v>
   <v>       0.10526316       0.10526316       0.05263158 </v>
   <v>       0.15789474       0.10526316       0.05263158 </v>
   <v>       0.21052632       0.10526316       0.05263158 </v>
   <v>       0.26315789       0.10526316       0.05263158 </v>
   <v>       0.31578947       0.10526316       0.05263158 </v>
   <v>       0.36842105       0.10526316       0.05263158 </v>
   <v>       0.42105263       0.10526316       0.05263158 </v>
   <v>       0.47368421       0.10526316       0.05263158 </v>
   <v>       0.15789474       0.15789474       0.05263158 </v>
   <v>       0.21052632       0.15789474       0.05263158 </v>
   <v>       0.26315789       0.15789474       0.05263158 </v>
   <v>       0.31578947       0.15789474       0.05263158 </v>
   <v>       0.36842105       0.15789474       0.05263158 </v>
   <v>       0.42105263       0.15789474       0.05263158 </v>
   <v>       0.47368421       0.15789474       0.05263158 </v>
   <v>       0.21052632       0.21052632       0.05263158 </v>
   <v>       0.26315789       0.21052632       0.05263158 </v>
   <v>       0.31578947       0.21052632       0.05263158 </v>
   <v>       0.36842105       0.21052632       0.05263158 </v>
   <v>       0.42105263       0.21052632       0.05263158 </v>
   <v>       0.47368421       0.21052632       0.05263158 </v>
   <v>       0.26315789       0.26315789       0.05263158 </v>
   <v>       0.31578947       0.26315789       0.05263158 </v>
   <v>       0.36842105       0.26315789       0.05263158 </v>
   <v>       0.42105263       0.26315789       0.05263158 </v>
   <v>       0.47368421       0.26315789       0.05263158 </v>
   <v>       0.31578947       0.31578947       0.05263158 </v>
   <v>       0.36842105       0.31578947       0.05263158 </v>
   <v>       0.42105263       0.31578947       0.05263158 </v>
   <v>       0.47368421       0.31578947       0.05263158 </v>
   <v>       0.36842105       0.36842105       0.05263158 </v>
   <v>       0.42105263       0.36842105       0.05263158 </v>
   <v>       0.47368421       0.36842105       0.05263158 </v>
   <v>       0.42105263       0.42105263       0.05263158 </v>
   <v>       0.47368421       0.42105263       0.05263158 </v>
   <v>       0.47368421       0.47368421       0.05263158 </v>
   <v>       0.10526316       0.10526316       0.10526316 </v>
   <v>       0.15789474       0.10526316       0.10526316 </v>
   <v>       0.21052632       0.10526316       0.10526316 </v>
   <v>       0.26315789       0.10526316       0.10526316 </v>
   <v>       0.31578947       0.10526316       0.10526316 </v>
   <v>       0.36842105       0.10526316       0.10526316 </v>
   <v>       0.42105263       0.10526316       0.10526316 </v>
   <v>       0.47368421       0.10526316       0.10526316 </v>
   <v>       0.15789474       0.15789474       0.10526316 </v>
   <v>       0.21052632       0.15789474       0.10526316 </v>
   <v>       0.26315789       0.15789474       0.10526316 </v>
   <v>       0.31578947       0.15789474       0.10526316 </v>
   <v>       0.36842105       0.15789474       0.10526316 </v>
   <v>       0.42105263       0.15789474       0.10526316 </v>
   <v>       0.47368421       0.15789474       0.10526316 </v>
   <v>       0.21052632       0.21052632       0.10526316 </v>
   <v>       0.26315789       0.21052632       0.10526316 </v>
   <v>       0.31578947       0.21052632       0.10526316 </v>
   <v>       0.36842105       0.21052632       0.10526316 </v>
   <v>       0.42105263       0.21052632       0.10526316 </v>
   <v>       0.47368421       0.21052632       0.10526316 </v>
   <v>       0.26315789       0.26315789       0.10526316 </v>
   <v>       0.31578947       0.26315789       0.10526316 </v>
   <v>       0.36842105       0.26315789       0.10526316 </v>
   <v>       0.42105263       0.26315789       0.10526316 </v>
   <v>       0.47368421       0.26315789       0.10526316 </v>
   <v>       0.31578947       0.31578947       0.10526316 </v>
   <v>       0.36842105       0.31578947       0.10526316 </v>
   <v>       0.42105263       0.31578947       0.10526316 </v>
   <v>       0.47368421       0.31578947       0.10526316 </v>
   <v>       0.36842105       0.36842105       0.10526316 </v>
   <v>       0.42105263       0.36842105       0.10526316 </v>
   <v>       0.47368421       0.36842105       0.10526316 </v>
   <v>       0.42105263       0.42105263       0.10526316 </v>
   <v>       0.47368421       0.42105263       0.10526316 </v>
   <v>       0.47368421       0.47368421       0.10526316 </v>
   <v>       0.15789474       0.15789474       0.15789474 </v>
   <v>       0.21052632       0.15789474       0.15789474 </v>
   <v>       0.26315789       0.15789474       0.15789474 </v>
   <v>       0.31578947       0.15789474       0.15789474 </v>
   <v>       0.36842105       0.15789474       0.15789474 </v>
   <v>       0.42105263       0.15789474       0.15789474 </v>
   <v>       0.47368421       0.15789474       0.15789474 </v>
   <v>       0.21052632       0.21052632       0.15789474 </v>
   <v>       0.26315789       0.21052632       0.15789474 </v>
   <v>       0.31578947       0.21052632       0.15789474 </v>
   <v>       0.36842105       0.21052632       0.15789474 </v>
   <v>       0.42105263       0.21052632       0.15789474 </v>
   <v>       0.47368421       0.21052632       0.15789474 </v>
   <v>       0.26315789       0.26315789       0.15789474 </v>
   <v>       0.31578947       0.26315789       0.15789474 </v>
   <v>       0.36842105       0.26315789       0.15789474 </v>
   <v>       0.42105263       0.26315789       0.15789474 </v>
   <v>       0.47368421       0.26315789       0.15789474 </v>
   <v>       0.31578947       0.31578947       0.15789474 </v>
   <v>       0.36842105       0.31578947       0.15789474 </v>
   <v>       0.42105263       0.31578947       0.15789474 </v>
   <v>       0.47368421       0.31578947       0.15789474 </v>
   <v>       0.36842105       0.36842105       0.15789474 </v>
   <v>       0.42105263       0.36842105       0.15789474 </v>
   <v>       0.47368421       0.36842105       0.15789474 </v>
   <v>       0.42105263       0.42105263       0.15789474 </v>
   <v>       0.47368421       0.42105263       0.15789474 </v>
   <v>       0.47368421       0.47368421       0.15789474 </v>
   <v>       0.21052632       0.21052632       0.21052632 </v>
   <v>       0.26315789       0.21052632       0.21052632 </v>
   <v>       0.31578947       0.21052632       0.21052632 </v>
   <v>       0.36842105       0.21052632       0.21052632 </v>
   <v>       0.42105263       0.21052632       0.21052632 </v>
   <v>       0.47368421       0.21052632       0.21052632 </v>
   <v>       0.26315789       0.26315789       0.21052632 </v>
   <v>       0.31578947       0.26315789       0.21052632 </v>
   <v>       0.36842105       0.26315789       0.21052632 </v>
   <v>       0.42105263       0.26315789       0.21052632 </v>
   <v>       0.47368421       0.26315789       0.21052632 </v>
   <v>       0.31578947       0.31578947       0.21052632 </v>
   <v>       0.36842105       0.31578947       0.21052632 </v>
   <v>       0.42105263       0.31578947       0.21052632 </v>
   <v>       0.47368421       0.31578947       0.21052632 </v>
   <v>       0.36842105       0.36842105       0.21052632 </v>
   <v>       0.42105263       0.36842105       0.21052632 </v>
   <v>       0.47368421       0.36842105       0.21052632 </v>
   <v>       0.42105263       0.42105263       0.21052632 </v>
   <v>       0.47368421       0.42105263       0.21052632 </v>
   <v>       0.47368421       0.47368421       0.21052632 </v>
   <v>       0.26315789       0.26315789       0.26315789 </v>
   <v>       0.31578947       0.26315789       0.26315789 </v>
   <v>       0.36842105       0.26315789       0.26315789 </v>
   <v>       0.42105263       0.26315789       0.26315789 </v>
   <v>       0.47368421       0.26315789       0.26315789 </v>
   <v>       0.31578947       0.31578947       0.26315789 </v>
   <v>       0.36842105       0.31578947       0.26315789 </v>
   <v>       0.42105263       0.31578947       0.26315789 </v>
   <v>       0.47368421       0.31578947       0.26315789 </v>
   <v>       0.36842105       0.36842105       0.26315789 </v>
   <v>       0.42105263       0.36842105       0.26315789 </v>
   <v>       0.47368421       0.36842105       0.26315789 </v>
   <v>       0.42105263       0.42105263       0.26315789 </v>
   <v>       0.47368421       0.42105263       0.26315789 </v>
   <v>       0.47368421       0.47368421       0.26315789 </v>
   <v>       0.31578947       0.31578947       0.31578947 </v>
   <v>       0.36842105       0.31578947       0.31578947 </v>
   <v>       0.42105263       0.31578947       0.31578947 </v>
   <v>       0.47368421       0.31578947       0.31578947 </v>
   <v>       0.36842105       0.36842105       0.31578947 </v>
   <v>       0.42105263       0.36842105       0.31578947 </v>
   <v>       0.47368421       0.36842105       0.31578947 </v>
   <v>       0.42105263       0.42105263       0.31578947 </v>
   <v>       0.47368421       0.42105263       0.31578947 </v>
   <v>       0.47368421       0.47368421       0.31578947 </v>
   <v>       0.36842105       0.36842105       0.36842105 </v>
   <v>       0.42105263       0.36842105       0.36842105 </v>
   <v>       0.47368421       0.36842105       0.36842105 </v>
   <v>       0.42105263       0.42105263       0.36842105 </v>
   <v>       0.47368421       0.42105263       0.36842105 </v>
   <v>       0.47368421       0.47368421       0.36842105 </v>
   <v>       0.42105263       0.42105263       0.42105263 </v>
   <v>       0.47368421       0.42105263       0.42105263 </v>
   <v>       0.47368421       0.47368421       0.42105263 </v>
   <v>       0.47368421       0.47368421       0.47368421 </v>
  </varray>
  <varray name="weights" >
   <v>       0.00014579 </v>
   <v>       0.00087476 </v>
   <v>       0.00087476 </v>
   <v>       0.00087476 </v>
   <v>       0.00087476 </v>
   <v>       0.00087476 </v>
   <v>       0.00087476 </v>
   <v>       0.00087476 </v>
   <v>       0.00087476 </v>
   <v>       0.00087476 </v>
   <v>       0.00174953 </v>
   <v>       0.00349905 </v>
   <v>       0.00349905 </v>
   <v>       0.00349905 </v>
   <v>       0.00349905 </v>
   <v>       0.00349905 </v>
   <v>       0.00349905 </v>
   <v>       0.00349905 </v>
   <v>       0.00349905 </v>
   <v>       0.00174953 </v>
   <v>       0.00349905 </v>
   <v>       0.00349905 </v>
   <v>       0.00349905 </v>
   <v>       0.00349905 </v>
   <v>       0.00349905 </v>
   <v>       0.00349905 </v>
   <v>       0.00349905 </v>
   <v>       0.00174953 </v>
   <v>       0.00349905 </v>
   <v>       0.00349905 </v>
   <v>       0.00349905 </v>
   <v>       0.00349905 </v>
   <v>       0.00349905 </v>
   <v>       0.00349905 </v>
   <v>       0.00174953 </v>
   <v>       0.00349905 </v>
   <v>       0.00349905 </v>
   <v>       0.00349905 </v>
   <v>       0.00349905 </v>
   <v>       0.00349905 </v>
   <v>       0.00174953 </v>
   <v>       0.00349905 </v>
   <v>       0.00349905 </v>
   <v>       0.00349905 </v>
   <v>       0.00349905 </v>
   <v>       0.00174953 </v>
   <v>       0.00349905 </v>
   <v>       0.00349905 </v>
   <v>       0.00349905 </v>
   <v>       0.00174953 </v>
   <v>       0.00349905 </v>
   <v>       0.00349905 </v>
   <v>       0.00174953 </v>
   <v>       0.00349905 </v>
   <v>       0.00174953 </v>
   <v>       0.00116635 </v>
   <v>       0.00349905 </v>
   <v>       0.00349905 </v>
   <v>       0.00349905 </v>
   <v>       0.00349905 </v>
   <v>       0.00349905 </v>
   <v>       0.00349905 </v>
   <v>       0.00349905 </v>
   <v>       0.00349905 </v>
   <v>       0.00349905 </v>
   <v>       0.00699810 </v>
   <v>       0.00699810 </v>
   <v>       0.00699810 </v>
   <v>       0.00699810 </v>
   <v>       0.00699810 </v>
   <v>       0.00699810 </v>
   <v>       0.00699810 </v>
   <v>       0.00349905 </v>
   <v>       0.00699810 </v>
   <v>       0.00699810 </v>
   <v>       0.00699810 </v>
   <v>       0.00699810 </v>
   <v>       0.00699810 </v>
   <v>       0.00699810 </v>
   <v>       0.00349905 </v>
   <v>       0.00699810 </v>
   <v>       0.00699810 </v>
   <v>       0.00699810 </v>
   <v>       0.00699810 </v>
   <v>       0.00699810 </v>
   <v>       0.00349905 </v>
   <v>       0.00699810 </v>
   <v>       0.00699810 </v>
   <v>       0.00699810 </v>
   <v>       0.00699810 </v>
   <v>       0.00349905 </v>
   <v>       0.00699810 </v>
   <v>       0.00699810 </v>
   <v>       0.00699810 </v>
   <v>       0.00349905 </v>
   <v>       0.00699810 </v>
   <v>       0.00699810 </v>
   <v>       0.00349905 </v>
   <v>       0.00699810 </v>
   <v>       0.00349905 </v>
   <v>       0.00116635 </v>
   <v>       0.00349905 </v>
   <v>       0.00349905 </v>
   <v>       0.00349905 </v>
   <v>       0.00349905 </v>
   <v>       0.00349905 </v>
   <v>       0.00349905 </v>
   <v>       0.00349905 </v>
   <v>       0.00349905 </v>
   <v>       0.00699810 </v>
   <v>       0.00699810 </v>
   <v>       0.00699810 </v>
   <v>       0.00699810 </v>
   <v>       0.00699810 </v>
   <v>       0.00699810 </v>
   <v>       0.00349905 </v>
   <v>       0.00699810 </v>
   <v>       0.00699810 </v>
   <v>       0.00699810 </v>
   <v>       0.00699810 </v>
   <v>       0.00699810 </v>
   <v>       0.00349905 </v>
   <v>       0.00699810 </v>
   <v>       0.00699810 </v>
   <v>       0.00699810 </v>
   <v>       0.00699810 </v>
   <v>       0.00349905 </v>
   <v>       0.00699810 </v>
   <v>       0.00699810 </v>
   <v>       0.00699810 </v>
   <v>       0.00349905 </v>
   <v>       0.00699810 </v>
   <v>       0.00699810 </v>
   <v>       0.00349905 </v>
   <v>       0.00699810 </v>
   <v>       0.00349905 </v>
   <v>       0.00116635 </v>
   <v>       0.00349905 </v>
   <v>       0.00349905 </v>
   <v>       0.00349905 </v>
   <v>       0.00349905 </v>
   <v>       0.00349905 </v>
   <v>       0.00349905 </v>
   <v>       0.00349905 </v>
   <v>       0.00699810 </v>
   <v>       0.00699810 </v>
   <v>       0.00699810 </v>
   <v>       0.00699810 </v>
   <v>       0.00699810 </v>
   <v>       0.00349905 </v>
   <v>       0.00699810 </v>
   <v>       0.00699810 </v>
   <v>       0.00699810 </v>
   <v>       0.00699810 </v>
   <v>       0.00349905 </v>
   <v>       0.00699810 </v>
   <v>       0.00699810 </v>
   <v>       0.00699810 </v>
   <v>       0.00349905 </v>
   <v>       0.00699810 </v>
   <v>       0.00699810 </v>
   <v>       0.00349905 </v>
   <v>       0.00699810 </v>
   <v>       0.00349905 </v>
   <v>       0.00116635 </v>
   <v>       0.00349905 </v>
   <v>       0.00349905 </v>
   <v>       0.00349905 </v>
   <v>       0.00349905 </v>
   <v>       0.00349905 </v>
   <v>       0.00349905 </v>
   <v>       0.00699810 </v>
   <v>       0.00699810 </v>
   <v>       0.00699810 </v>
   <v>       0.00699810 </v>
   <v>       0.00349905 </v>
   <v>       0.00699810 </v>
   <v>       0.00699810 </v>
   <v>       0.00699810 </v>
   <v>       0.00349905 </v>
   <v>       0.00699810 </v>
   <v>       0.00699810 </v>
   <v>       0.00349905 </v>
   <v>       0.00699810 </v>
   <v>       0.00349905 </v>
   <v>       0.00116635 </v>
   <v>       0.00349905 </v>
   <v>       0.00349905 </v>
   <v>       0.00349905 </v>
   <v>       0.00349905 </v>
   <v>       0.00349905 </v>
   <v>       0.00699810 </v>
   <v>       0.00699810 </v>
   <v>       0.00699810 </v>
   <v>       0.00349905 </v>
   <v>       0.00699810 </v>
   <v>       0.00699810 </v>
   <v>       0.00349905 </v>
   <v>       0.00699810 </v>
   <v>       0.00349905 </v>
   <v>       0.00116635 </v>
   <v>       0.00349905 </v>
   <v>       0.00349905 </v>
   <v>       0.00349905 </v>
   <v>       0.00349905 </v>
   <v>       0.00699810 </v>
   <v>       0.00699810 </v>
   <v>       0.00349905 </v>
   <v>       0.00699810 </v>
   <v>       0.00349905 </v>
   <v>       0.00116635 </v>
   <v>       0.00349905 </v>
   <v>       0.00349905 </v>
   <v>       0.00349905 </v>
   <v>       0.00699810 </v>
   <v>       0.00349905 </v>
   <v>       0.00116635 </v>
   <v>       0.00349905 </v>
   <v>       0.00349905 </v>
   <v>       0.00116635 </v>
  </varray>
 </kpoints>
 <parameters>
  <separator name="general" >
   <i type="string" name="SYSTEM">jump2</i>
   <i type="logical" name="LCOMPAT"> F  </i>
  </separator>
  <separator name="electronic" >
   <i type="string" name="PREC">normal</i>
   <i name="ENMAX">    325.00000000</i>
   <i name="ENAUG">    400.00000000</i>
   <i name="EDIFF">      0.00010000</i>
   <i type="int" name="IALGO">    38</i>
   <i type="int" name="IWAVPR">    11</i>
   <i type="int" name="NBANDS">     4</i>
   <i name="NELECT">      1.00000000</i>
   <i type="int" name="TURBO">     0</i>
   <i type="int" name="IRESTART">     0</i>
   <i type="int" name="NREBOOT">     0</i>
   <i type="int" name="NMIN">     0</i>
   <i name="EREF">      0.00000000</i>
   <separator name="electronic smearing" >
    <i type="int" name="ISMEAR">     0</i>
    <i name="SIGMA">      0.10000000</i>
    <i name="KSPACING">      0.23000000</i>
    <i type="logical" name="KGAMMA"> T  </i>
   </separator>
   <separator name="electronic projectors" >
    <i type="logical" name="LREAL"> T  </i>
    <v name="ROPT">     -0.00050000</v>
    <i type="int" name="LMAXPAW">  -100</i>
    <i type="int" name="LMAXMIX">     2</i>
    <i type="logical" name="NLSPLINE"> F  </i>
   </separator>
   <separator name="electronic startup" >
    <i type="int" name="ISTART">     0</i>
    <i type="int" name="ICHARG">     2</i>
    <i type="int" name="INIWAV">     1</i>
   </separator>
   <separator name="electronic spin" >
    <i type="int" name="ISPIN">     1</i>
    <i type="logical" name="LNONCOLLINEAR"> F  </i>
    <v name="MAGMOM">      1.00000000</v>
    <i name="NUPDOWN">     -1.00000000</i>
    <i type="logical" name="LSORBIT"> F  </i>
    <v name="SAXIS">      0.00000000      0.00000000      1.00000000</v>
    <i type="logical" name="LSPIRAL"> F  </i>
    <v name="QSPIRAL">      0.00000000      0.00000000      0.00000000</v>
    <i type="logical" name="LZEROZ"> F  </i>
   </separator>
   <separator name="electronic exchange-correlation" >
    <i type="logical" name="LASPH"> F  </i>
    <i type="logical" name="LMETAGGA"> F  </i>
   </separator>
   <separator name="electronic convergence" >
    <i type="int" name="NELM">    60</i>
    <i type="int" name="NELMDL">    -5</i>
    <i type="int" name="NELMIN">     2</i>
    <i name="ENINI">    325.00000000</i>
    <separator name="electronic convergence detail" >
     <i type="logical" name="LDIAG"> T  </i>
     <i type="logical" name="LSUBROT"> T  </i>
     <i name="WEIMIN">      0.00100000</i>
     <i name="EBREAK">      0.00000625</i>
     <i name="DEPER">      0.30000000</i>
     <i type="int" name="NRMM">     4</i>
     <i name="TIME">      0.40000000</i>
    </separator>
   </separator>
   <separator name="electronic mixer" >
    <i name="AMIX">      0.40000000</i>
    <i name="BMIX">      1.00000000</i>
    <i name="AMIN">      0.01000000</i>
    <i name="AMIX_MAG">      1.60000000</i>
    <i name="BMIX_MAG">      1.00000000</i>
    <separator name="electronic mixer details" >
     <i type="int" name="IMIX">     4</i>
     <i type="int" name="MAXMIX">   -45</i>
     <i name="WC">    100.00000000</i>
     <i type="int" name="INIMIX">     1</i>
     <i type="int" name="MIXPRE">     1</i>
     <i type="int" name="MREMOVE">     5</i>
    </separator>
   </separator>
   <separator name="electronic dipolcorrection" >
    <i type="logical" name="LDIPOL"> F  </i>
    <i type="logical" name="LMONO"> F  </i>
    <i type="int" name="IDIPOL">     0</i>
    <i name="EPSILON">      1.00000000</i>
    <v name="DIPOL">   -100.00000000   -100.00000000   -100.00000000</v>
    <i name="EFIELD">      0.00000000</i>
   </separator>
  </separator>
  <separator name="grids" >
   <i type="int" name="NGX">     6</i>
   <i type="int" name="NGY">     6</i>
   <i type="int" name="NGZ">     6</i>
   <i type="int" name="NGXF">    12</i>
   <i type="int" name="NGYF">    12</i>
   <i type="int" name="NGZF">    12</i>
   <i type="logical" name="ADDGRID"> T  </i>
  </separator>
  <separator name="ionic" >
   <i type="int" name="NSW">    30</i>
   <i type="int" name="IBRION">     2</i>
   <i type="int" name="ISIF">     3</i>
   <i name="PSTRESS">      0.00000000</i>
   <i name="EDIFFG">     -0.01000000</i>
   <i type="int" name="NFREE">     1</i>
   <i name="POTIM">      0.50000000</i>
   <i name="SMASS">     -3.00000000</i>
   <i name="SCALEE">      1.00000000</i>
  </separator>
  <separator name="ionic md" >
   <i name="TEBEG">      0.00010000</i>
   <i name="TEEND">      0.00010000</i>
   <i type="int" name="NBLOCK">     1</i>
   <i type="int" name="KBLOCK">    30</i>
   <i type="int" name="NPACO">   256</i>
   <i name="APACO">     16.00000000</i>
  </separator>
  <separator name="symmetry" >
   <i type="int" name="ISYM">     2</i>
   <i name="SYMPREC">      0.00001000</i>
  </separator>
  <separator name="dos" >
   <i type="logical" name="LORBIT"> F  </i>
   <v name="RWIGS">     -1.00000000</v>
   <i type="int" name="NEDOS">   301</i>
   <i name="EMIN">     10.00000000</i>
   <i name="EMAX">    -10.00000000</i>
   <i name="EFERMI">      0.00000000</i>
  </separator>
  <separator name="writing" >
   <i type="int" name="NWRITE">     2</i>
   <i type="logical" name="LWAVE"> F  </i>
   <i type="logical" name="LCHARG"> T  </i>
   <i type="logical" name="LPARD"> F  </i>
   <i type="logical" name="LVTOT"> F  </i>
   <i type="logical" name="LVHAR"> F  </i>
   <i type="logical" name="LELF"> F  </i>
   <i type="logical" name="LOPTICS"> F  </i>
   <v name="STM">      0.00000000      0.00000000      0.00000000      0.00000000      0.00000000      0.00000000      0.00000000</v>
  </separator>
  <separator name="performance" >
   <i type="int" name="NPAR">     4</i>
   <i type="int" name="NSIM">     4</i>
   <i type="int" name="NBLK">    -1</i>
   <i type="logical" name="LPLANE"> T  </i>
   <i type="logical" name="LSCALAPACK"> T  </i>
   <i type="logical" name="LSCAAWARE"> F  </i>
   <i type="logical" name="LSCALU"> F  </i>
   <i type="logical" name="LASYNC"> F  </i>
   <i type="logical" name="LORBITALREAL"> F  </i>
  </separator>
  <separator name="miscellaneous" >
   <i type="int" name="IDIOT">     3</i>
   <i type="logical" name="LMUSIC"> F  </i>
   <v name="POMASS">      1.00000000</v>
   <v name="DARWINR">      0.00000000</v>
   <v name="DARWINV">      1.00000000</v>
   <i type="logical" name="LCORR"> T  </i>
  </separator>
  <i type="logical" name="GGA_COMPAT"> T  </i>
  <i type="logical" name="LBERRY"> F  </i>
  <i type="int" name="ICORELEVEL">     0</i>
  <i type="logical" name="LDAU"> F  </i>
  <i type="int" name="I_CONSTRAINED_M">     0</i>
  <separator name="electronic exchange-correlation" >
   <i type="string" name="GGA">--</i>
   <i type="int" name="VOSKOWN">     0</i>
   <i type="logical" name="LHFCALC"> F  </i>
   <i type="string" name="PRECFOCK"></i>
   <i type="logical" name="LHFONE"> F  </i>
   <i type="logical" name="LRHFCALC"> F  </i>
   <i type="logical" name="LTHOMAS"> F  </i>
   <i type="logical" name="LMODELHF"> F  </i>
   <i name="ENCUT4O">     -1.00000000</i>
   <i type="int" name="EXXOEP">     0</i>
   <i type="int" name="FOURORBIT">     0</i>
   <i name="AEXX">      0.00000000</i>
   <i name="HFALPHA">      0.00000000</i>
   <i name="ALDAX">      1.00000000</i>
   <i name="AGGAX">      1.00000000</i>
   <i name="ALDAC">      1.00000000</i>
   <i name="AGGAC">      1.00000000</i>
   <i type="int" name="NKREDX">     1</i>
   <i type="int" name="NKREDY">     1</i>
   <i type="int" name="NKREDZ">     1</i>
   <i type="logical" name="SHIFTRED"> F  </i>
   <i type="logical" name="ODDONLY"> F  </i>
   <i type="logical" name="EVENONLY"> F  </i>
   <i type="int" name="LMAXFOCK">     0</i>
   <i type="int" name="NMAXFOCKAE">     0</i>
   <i type="logical" name="LFOCKAEDFT"> F  </i>
   <i name="HFSCREEN">      0.00000000</i>
   <i name="HFSCREENC">      0.00000000</i>
  </separator>
  <separator name="vdW DFT" >
   <i type="logical" name="LUSE_VDW"> F  </i>
   <i name="Zab_VDW">     -0.84910000</i>
   <i name="PARAM1">      0.12340000</i>
   <i name="PARAM2">      1.00000000</i>
   <i name="PARAM3">      0.00000000</i>
  </separator>
  <separator name="model GW" >
   <i type="int" name="MODEL_GW">     0</i>
   <i name="MODEL_EPS0">      1.79988799</i>
   <i name="MODEL_ALPHA">      1.00000000</i>
  </separator>
  <separator name="linear response parameters" >
   <i type="logical" name="LEPSILON"> F  </i>
   <i type="logical" name="LRPA"> F  </i>
   <i type="logical" name="LNABLA"> F  </i>
   <i type="logical" name="LVEL"> F  </i>
   <i type="int" name="KINTER">     0</i>
   <i name="CSHIFT">      0.10000000</i>
   <i name="OMEGAMAX">     -1.00000000</i>
  </separator>
  <separator name="orbital magnetization" >
   <i type="logical" name="NUCIND"> F  </i>
   <v name="MAGPOS">      0.00000000      0.00000000      0.00000000</v>
   <i type="logical" name="LNICSALL"> T  </i>
   <i type="logical" name="ORBITALMAG"> F  </i>
   <i type="logical" name="LMAGBLOCH"> F  </i>
   <i type="logical" name="LCHIMAG"> F  </i>
   <i type="logical" name="LGAUGE"> T  </i>
   <i type="int" name="MAGATOM">     0</i>
   <v name="MAGDIPOL">      0.00000000      0.00000000      0.00000000</v>
   <v name="AVECCONST">      0.00000000      0.00000000      0.00000000</v>
  </separator>
  <separator name="response functions" >
   <i type="logical" name="LADDER"> F  </i>
   <i type="logical" name="LHARTREE"> T  </i>
   <i type="int" name="IBSE">     0</i>
   <i type="logical" name="LTCTE"> F  </i>
   <i type="logical" name="LTETE"> F  </i>
   <i type="logical" name="LFXCEPS"> F  </i>
   <i type="logical" name="L2ORDER"> F  </i>
   <i type="logical" name="LUSEW"> F  </i>
   <i name="ENCUTGW">     -2.00000000</i>
   <i name="ENCUTGWSOFT">     -2.00000000</i>
   <i name="ENCUTLF">     -1.00000000</i>
   <i type="int" name="LMAXMP2">    -1</i>
   <i name="SCISSOR">      0.00000000</i>
   <i type="int" name="NOMEGA">     0</i>
   <i type="int" name="NOMEGAR">     0</i>
   <i type="int" name="NBANDSGW">    -1</i>
   <i type="int" name="NBANDSO">    -1</i>
   <i type="int" name="NBANDSV">    -1</i>
   <i name="OPTEMAX">      0.00000000</i>
   <i type="int" name="NELM">     1</i>
   <i type="int" name="DIM">     3</i>
   <i type="int" name="ANTIRES">     0</i>
   <i name="OMEGAMAX">    -30.00000000</i>
   <i name="OMEGATL">   -200.00000000</i>
   <i type="int" name="OMEGAGRID">     0</i>
   <i name="CSHIFT">     -0.10000000</i>
   <i type="logical" name="SELFENERGY"> F  </i>
   <i type="logical" name="LSPECTRAL"> F  </i>
   <i type="logical" name="ODDONLYGW"> F  </i>
   <i type="logical" name="EVENONLYGW"> F  </i>
   <i type="int" name="NKREDLFX">     1</i>
   <i type="int" name="NKREDLFY">     1</i>
   <i type="int" name="NKREDLFZ">     1</i>
   <i type="int" name="MAXMEM">  1800</i>
   <i type="int" name="TELESCOPE">     0</i>
  </separator>
 </parameters>
 <atominfo>
  <atoms>       1 </atoms>
  <types>       1 </types>
  <array name="atoms" >
   <dimension dim="1">ion</dimension>
   <field type="string">element</field>
   <field type="int">atomtype</field>
   <set>
    <rc><c>H </c><c>   1</c></rc>
   </set>
  </array>
  <array name="atomtypes" >
   <dimension dim="1">type</dimension>
   <field type="int">atomspertype</field>
   <field type="string">element</field>
   <field>mass</field>
   <field>valence</field>
   <field type="string">pseudopotential</field>
   <set>
    <rc><c>   1</c><c>H </c><c>      1.00000000</c><c>      1.00000000</c><c> PAW_PBE H 15Jun2001                    </c></rc>
   </set>
  </array>
 </atominfo>
 <structure name="initialpos" >
  <crystal>
   <varray name="basis" >
    <v>       1.44221965       0.00000000       0.00000000 </v>
    <v>       0.00000000       1.44221965       0.00000000 </v>
    <v>       0.00000000       0.00000000       1.44221965 </v>
   </varray>
   <i name="volume">      2.99981332 </i>
   <varray name="rec_basis" >
    <v>       0.69337566       0.00000000       0.00000000 </v>
    <v>       0.00000000       0.69337566       0.00000000 </v>
    <v>       0.00000000       0.00000000       0.69337566 </v>
   </varray>
  </crystal>
  <varray name="positions" >
   <v>       0.00000000       0.00000000       0.00000000 </v>
  </varray>
 </structure>
 <calculation>
  <scstep>
   <time name="dav">    0.22    0.45</time>
   <time name="total">    0.22    0.45</time>
   <energy>
    <i name="alphaZ">      0.81211767 </i>
    <i name="ewald">    -14.16444434 </i>
    <i name="hartreedc">     -0.30379296 </i>
    <i name="XCdc">      2.73458007 </i>
    <i name="pawpsdc">      0.78132571 </i>
    <i name="pawaedc">     -0.79033343 </i>
    <i name="eentropy">     -0.00033934 </i>
    <i name="bandstr">     -3.79396333 </i>
    <i name="atom">     12.45896517 </i>
    <i name="e_fr_energy">     -2.26588479 </i>
    <i name="e_wo_entrp">     -2.26554545 </i>
    <i name="e_0_energy">     -2.26571512 </i>
   </energy>
  </scstep>
  <scstep>
   <time name="dav">    0.22    0.44</time>
   <time name="total">    0.22    0.45</time>
   <energy>
    <i name="e_fr_energy">     -2.28570745 </i>
    <i name="e_wo_entrp">     -2.28535086 </i>
    <i name="e_0_energy">     -2.28552916 </i>
   </energy>
  </scstep>
  <scstep>
   <time name="dav">    0.23    0.46</time>
   <time name="total">    0.23    0.46</time>
   <energy>
    <i name="e_fr_energy">     -2.28571158 </i>
    <i name="e_wo_entrp">     -2.28535499 </i>
    <i name="e_0_energy">     -2.28553328 </i>
   </energy>
  </scstep>
  <scstep>
   <time name="dav">    0.19    0.39</time>
   <time name="total">    0.20    0.39</time>
   <energy>
    <i name="e_fr_energy">     -2.28571158 </i>
    <i name="e_wo_entrp">     -2.28535499 </i>
    <i name="e_0_energy">     -2.28553328 </i>
   </energy>
  </scstep>
  <scstep>
   <time name="dav">    0.14    0.28</time>
   <time name="total">    0.14    0.29</time>
   <energy>
    <i name="e_fr_energy">     -2.28571158 </i>
    <i name="e_wo_entrp">     -2.28535499 </i>
    <i name="e_0_energy">     -2.28553328 </i>
   </energy>
  </scstep>
  <scstep>
   <time name="dav">    0.21    0.41</time>
   <time name="total">    0.21    0.42</time>
   <energy>
    <i name="e_fr_energy">     -2.28715790 </i>
    <i name="e_wo_entrp">     -2.28679610 </i>
    <i name="e_0_energy">     -2.28697700 </i>
   </energy>
  </scstep>
  <scstep>
   <time name="dav">    0.21    0.42</time>
   <time name="total">    0.21    0.43</time>
   <energy>
    <i name="e_fr_energy">     -2.28810117 </i>
    <i name="e_wo_entrp">     -2.28772875 </i>
    <i name="e_0_energy">     -2.28791496 </i>
   </energy>
  </scstep>
  <scstep>
   <time name="dav">    0.11    0.23</time>
   <time name="total">    0.12    0.24</time>
   <energy>
    <i name="alphaZ">      0.81211767 </i>
    <i name="ewald">    -14.16444434 </i>
    <i name="hartreedc">     -0.36401477 </i>
    <i name="XCdc">      2.75015187 </i>
    <i name="pawpsdc">      1.81598216 </i>
    <i name="pawaedc">     -1.82818883 </i>
    <i name="eentropy">     -0.00037253 </i>
    <i name="bandstr">     -3.76829577 </i>
    <i name="atom">     12.45896517 </i>
    <i name="e_fr_energy">     -2.28809937 </i>
    <i name="e_wo_entrp">     -2.28772684 </i>
    <i name="e_0_energy">     -2.28791311 </i>
   </energy>
  </scstep>
  <parameters_embedded>
   <separator name="dft+d2" >
    <i type="logical" name="LVDW"> F  </i>
   </separator>
  </parameters_embedded>
  <structure>
   <crystal>
    <varray name="basis" >
     <v>       1.44221965       0.00000000       0.00000000 </v>
     <v>       0.00000000       1.44221965       0.00000000 </v>
     <v>       0.00000000       0.00000000       1.44221965 </v>
    </varray>
    <i name="volume">      2.99981332 </i>
    <varray name="rec_basis" >
     <v>       0.69337566       0.00000000       0.00000000 </v>
     <v>       0.00000000       0.69337566       0.00000000 </v>
     <v>       0.00000000       0.00000000       0.69337566 </v>
    </varray>
   </crystal>
   <varray name="positions" >
    <v>       0.00000000       0.00000000       0.00000000 </v>
   </varray>
  </structure>
  <varray name="forces" >
   <v>       0.00000000       0.00000000       0.00000000 </v>
  </varray>
  <varray name="stress" >
   <v>     -20.51587039       0.00000000       0.00000000 </v>
   <v>       0.00000000     -20.51587039       0.00000000 </v>
   <v>       0.00000000      -0.00000000     -20.51587039 </v>
  </varray>
  <energy>
   <i name="e_fr_energy">     -2.28809937 </i>
   <i name="e_wo_entrp">     -2.28791311 </i>
   <i name="e_0_energy">     -0.00037253 </i>
  </energy>
  <time name="totalsc">    1.76    3.53</time>
 </calculation>
 <calculation>
  <scstep>
   <time name="dav">    0.18    0.37</time>
   <time name="total">    0.19    0.38</time>
   <energy>
    <i name="alphaZ">      0.81664932 </i>
    <i name="ewald">    -14.19074156 </i>
    <i name="hartreedc">     -0.36463309 </i>
    <i name="XCdc">      2.75491873 </i>
    <i name="pawpsdc">      1.78622439 </i>
    <i name="pawaedc">     -1.79834238 </i>
    <i name="eentropy">     -0.00036406 </i>
    <i name="bandstr">     -3.75095231 </i>
    <i name="atom">     12.45896517 </i>
    <i name="e_fr_energy">     -2.28827580 </i>
    <i name="e_wo_entrp">     -2.28791174 </i>
    <i name="e_0_energy">     -2.28809377 </i>
   </energy>
  </scstep>
  <scstep>
   <time name="dav">    0.11    0.23</time>
   <time name="total">    0.12    0.23</time>
   <energy>
    <i name="alphaZ">      0.81664932 </i>
    <i name="ewald">    -14.19074156 </i>
    <i name="hartreedc">     -0.36391176 </i>
    <i name="XCdc">      2.75473952 </i>
    <i name="pawpsdc">      1.79123882 </i>
    <i name="pawaedc">     -1.80338136 </i>
    <i name="eentropy">     -0.00036397 </i>
    <i name="bandstr">     -3.75147066 </i>
    <i name="atom">     12.45896517 </i>
    <i name="e_fr_energy">     -2.28827647 </i>
    <i name="e_wo_entrp">     -2.28791251 </i>
    <i name="e_0_energy">     -2.28809449 </i>
   </energy>
  </scstep>
  <structure>
   <crystal>
    <varray name="basis" >
     <v>       1.43954704       0.00000000       0.00000000 </v>
     <v>       0.00000000       1.43954704       0.00000000 </v>
     <v>       0.00000000      -0.00000000       1.43954704 </v>
    </varray>
    <i name="volume">      2.98316711 </i>
    <varray name="rec_basis" >
     <v>       0.69466295      -0.00000000      -0.00000000 </v>
     <v>      -0.00000000       0.69466295       0.00000000 </v>
     <v>      -0.00000000      -0.00000000       0.69466295 </v>
    </varray>
   </crystal>
   <varray name="positions" >
    <v>       0.00000000       0.00000000       0.00000000 </v>
   </varray>
  </structure>
  <varray name="forces" >
   <v>       0.00000000       0.00000000       0.00000000 </v>
  </varray>
  <varray name="stress" >
   <v>     -14.22618880      -0.00000000       0.00000000 </v>
   <v>      -0.00000000     -14.22618880       0.00000000 </v>
   <v>      -0.00000000      -0.00000000     -14.22618880 </v>
  </varray>
  <energy>
   <i name="e_fr_energy">     -2.28827647 </i>
   <i name="e_wo_entrp">     -2.28809449 </i>
   <i name="e_0_energy">     -0.00036397 </i>
  </energy>
  <time name="totalsc">    0.51    1.02</time>
 </calculation>
 <calculation>
  <scstep>
   <time name="dav">    0.19    0.38</time>
   <time name="total">    0.20    0.39</time>
   <energy>
    <i name="alphaZ">      0.82683724 </i>
    <i name="ewald">    -14.24950897 </i>
    <i name="hartreedc">     -0.36417294 </i>
    <i name="XCdc">      2.76510492 </i>
    <i name="pawpsdc">      1.79935094 </i>
    <i name="pawaedc">     -1.81153284 </i>
    <i name="eentropy">     -0.00034488 </i>
    <i name="bandstr">     -3.71312341 </i>
    <i name="atom">     12.45896517 </i>
    <i name="e_fr_energy">     -2.28842476 </i>
    <i name="e_wo_entrp">     -2.28807989 </i>
    <i name="e_0_energy">     -2.28825232 </i>
   </energy>
  </scstep>
  <scstep>
   <time name="dav">    0.18    0.37</time>
   <time name="total">    0.19    0.38</time>
   <energy>
    <i name="alphaZ">      0.82683724 </i>
    <i name="ewald">    -14.24950897 </i>
    <i name="hartreedc">     -0.36258577 </i>
    <i name="XCdc">      2.76471101 </i>
    <i name="pawpsdc">      1.80977905 </i>
    <i name="pawaedc">     -1.82201288 </i>
    <i name="eentropy">     -0.00034467 </i>
    <i name="bandstr">     -3.71426737 </i>
    <i name="atom">     12.45896517 </i>
    <i name="e_fr_energy">     -2.28842718 </i>
    <i name="e_wo_entrp">     -2.28808251 </i>
    <i name="e_0_energy">     -2.28825485 </i>
   </energy>
  </scstep>
  <structure>
   <crystal>
    <varray name="basis" >
     <v>       1.43361010       0.00000000       0.00000000 </v>
     <v>       0.00000000       1.43361010       0.00000000 </v>
     <v>       0.00000000      -0.00000000       1.43361010 </v>
    </varray>
    <i name="volume">      2.94640985 </i>
    <varray name="rec_basis" >
     <v>       0.69753973      -0.00000000      -0.00000000 </v>
     <v>      -0.00000000       0.69753973       0.00000000 </v>
     <v>      -0.00000000      -0.00000000       0.69753973 </v>
    </varray>
   </crystal>
   <varray name="positions" >
    <v>       0.00000000       0.00000000       0.00000000 </v>
   </varray>
  </structure>
  <varray name="forces" >
   <v>       0.00000000      -0.00000000       0.00000000 </v>
  </varray>
  <varray name="stress" >
   <v>       0.48494241      -0.00000000      -0.00000000 </v>
   <v>       0.00000000       0.48494241       0.00000000 </v>
   <v>       0.00000000       0.00000000       0.48494241 </v>
  </varray>
  <energy>
   <i name="e_fr_energy">     -2.28842718 </i>
   <i name="e_wo_entrp">     -2.28825485 </i>
   <i name="e_0_energy">     -0.00034467 </i>
  </energy>
  <time name="totalsc">    0.56    1.12</time>
  <eigenvalues>
   <array>
    <dimension dim="1">band</dimension>
    <dimension dim="2">kpoint</dimension>
    <dimension dim="3">spin</dimension>
    <field>eigene</field>
    <field>occ</field>
    <set>
     <set comment="spin 1">
      <set comment="kpoint 1">
       <r>  -13.6171    1.0000 </r>
       <r>   50.2952    0.0000 </r>
       <r>   61.7739    0.0000 </r>
       <r>   61.7739    0.0000 </r>
      </set>
      <set comment="kpoint 2">
       <r>  -13.4213    1.0000 </r>
       <r>   48.6839    0.0000 </r>
       <r>   57.9620    0.0000 </r>
       <r>   61.9750    0.0000 </r>
      </set>
      <set comment="kpoint 3">
       <r>  -12.8350    1.0000 </r>
       <r>   44.0016    0.0000 </r>
       <r>   56.5854    0.0000 </r>
       <r>   62.5780    0.0000 </r>
      </set>
      <set comment="kpoint 4">
       <r>  -11.8647    1.0000 </r>
       <r>   38.1250    0.0000 </r>
       <r>   56.9223    0.0000 </r>
       <r>   63.5805    0.0000 </r>
      </set>
      <set comment="kpoint 5">
       <r>  -10.5098    1.0000 </r>
       <r>   32.2693    0.0000 </r>
       <r>   57.9691    0.0000 </r>
       <r>   64.9832    0.0000 </r>
      </set>
      <set comment="kpoint 6">
       <r>   -8.7845    1.0000 </r>
       <r>   26.6862    0.0000 </r>
       <r>   59.4608    0.0000 </r>
       <r>   66.7805    0.0000 </r>
      </set>
      <set comment="kpoint 7">
       <r>   -6.7200    1.0000 </r>
       <r>   21.4788    0.0000 </r>
       <r>   61.2428    0.0000 </r>
       <r>   68.9515    0.0000 </r>
      </set>
      <set comment="kpoint 8">
       <r>   -4.3605    1.0000 </r>
       <r>   16.7598    0.0000 </r>
       <r>   63.2452    0.0000 </r>
       <r>   71.4944    0.0000 </r>
      </set>
      <set comment="kpoint 9">
       <r>   -1.8858    1.0000 </r>
       <r>   12.6851    0.0000 </r>
       <r>   65.1605    0.0000 </r>
       <r>   74.3162    0.0000 </r>
      </set>
      <set comment="kpoint 10">
       <r>    0.1186    1.0000 </r>
       <r>    9.8894    0.0000 </r>
       <r>   66.4885    0.0000 </r>
       <r>   76.9820    0.0000 </r>
      </set>
      <set comment="kpoint 11">
       <r>  -13.2256    1.0000 </r>
       <r>   47.7562    0.0000 </r>
       <r>   55.4054    0.0000 </r>
       <r>   60.5705    0.0000 </r>
      </set>
      <set comment="kpoint 12">
       <r>  -12.6408    1.0000 </r>
       <r>   43.9056    0.0000 </r>
       <r>   53.4606    0.0000 </r>
       <r>   60.9308    0.0000 </r>
      </set>
      <set comment="kpoint 13">
       <r>  -11.6677    1.0000 </r>
       <r>   38.2591    0.0000 </r>
       <r>   53.6740    0.0000 </r>
       <r>   61.8648    0.0000 </r>
      </set>
      <set comment="kpoint 14">
       <r>  -10.3162    1.0000 </r>
       <r>   32.4347    0.0000 </r>
       <r>   54.7267    0.0000 </r>
       <r>   63.2119    0.0000 </r>
      </set>
      <set comment="kpoint 15">
       <r>   -8.5914    1.0000 </r>
       <r>   26.8678    0.0000 </r>
       <r>   56.2804    0.0000 </r>
       <r>   64.9454    0.0000 </r>
      </set>
      <set comment="kpoint 16">
       <r>   -6.5242    1.0000 </r>
       <r>   21.6726    0.0000 </r>
       <r>   58.1912    0.0000 </r>
       <r>   67.0270    0.0000 </r>
      </set>
      <set comment="kpoint 17">
       <r>   -4.1654    1.0000 </r>
       <r>   16.9570    0.0000 </r>
       <r>   60.3606    0.0000 </r>
       <r>   69.4264    0.0000 </r>
      </set>
      <set comment="kpoint 18">
       <r>   -1.6881    1.0000 </r>
       <r>   12.8913    0.0000 </r>
       <r>   62.5375    0.0000 </r>
       <r>   72.0000    0.0000 </r>
      </set>
      <set comment="kpoint 19">
       <r>    0.3081    1.0000 </r>
       <r>   10.0906    0.0000 </r>
       <r>   64.1315    0.0000 </r>
       <r>   74.3534    0.0000 </r>
      </set>
      <set comment="kpoint 20">
       <r>  -12.0564    1.0000 </r>
       <r>   42.7789    0.0000 </r>
       <r>   48.9453    0.0000 </r>
       <r>   61.1304    0.0000 </r>
      </set>
      <set comment="kpoint 21">
       <r>  -11.0840    1.0000 </r>
       <r>   38.4862    0.0000 </r>
       <r>   47.8539    0.0000 </r>
       <r>   62.0065    0.0000 </r>
      </set>
      <set comment="kpoint 22">
       <r>   -9.7316    1.0000 </r>
       <r>   32.9159    0.0000 </r>
       <r>   48.7097    0.0000 </r>
       <r>   63.3079    0.0000 </r>
      </set>
      <set comment="kpoint 23">
       <r>   -8.0053    1.0000 </r>
       <r>   27.4156    0.0000 </r>
       <r>   50.2517    0.0000 </r>
       <r>   64.9866    0.0000 </r>
      </set>
      <set comment="kpoint 24">
       <r>   -5.9397    1.0000 </r>
       <r>   22.2450    0.0000 </r>
       <r>   52.2233    0.0000 </r>
       <r>   66.9536    0.0000 </r>
      </set>
      <set comment="kpoint 25">
       <r>   -3.5865    1.0000 </r>
       <r>   17.5333    0.0000 </r>
       <r>   54.5076    0.0000 </r>
       <r>   69.0545    0.0000 </r>
      </set>
      <set comment="kpoint 26">
       <r>   -1.1114    1.0000 </r>
       <r>   13.4852    0.0000 </r>
       <r>   56.9165    0.0000 </r>
       <r>   70.0938    0.0000 </r>
      </set>
      <set comment="kpoint 27">
       <r>    0.8872    1.0000 </r>
       <r>   10.6985    0.0000 </r>
       <r>   58.8398    0.0000 </r>
       <r>   68.5072    0.0000 </r>
      </set>
      <set comment="kpoint 28">
       <r>  -10.1124    1.0000 </r>
       <r>   37.7065    0.0000 </r>
       <r>   43.2659    0.0000 </r>
       <r>   62.8539    0.0000 </r>
      </set>
      <set comment="kpoint 29">
       <r>   -8.7598    1.0000 </r>
       <r>   33.5584    0.0000 </r>
       <r>   42.7252    0.0000 </r>
       <r>   64.1226    0.0000 </r>
      </set>
      <set comment="kpoint 30">
       <r>   -7.0398    1.0000 </r>
       <r>   28.2858    0.0000 </r>
       <r>   44.0471    0.0000 </r>
       <r>   65.7238    0.0000 </r>
      </set>
      <set comment="kpoint 31">
       <r>   -4.9776    1.0000 </r>
       <r>   23.1828    0.0000 </r>
       <r>   45.9850    0.0000 </r>
       <r>   67.4414    0.0000 </r>
      </set>
      <set comment="kpoint 32">
       <r>   -2.6263    1.0000 </r>
       <r>   18.5012    0.0000 </r>
       <r>   48.3221    0.0000 </r>
       <r>   67.7238    0.0000 </r>
      </set>
      <set comment="kpoint 33">
       <r>   -0.1601    1.0000 </r>
       <r>   14.4724    0.0000 </r>
       <r>   50.8166    0.0000 </r>
       <r>   64.6465    0.0000 </r>
      </set>
      <set comment="kpoint 34">
       <r>    1.8345    1.0000 </r>
       <r>   11.7038    0.0000 </r>
       <r>   52.8938    0.0000 </r>
       <r>   61.9269    0.0000 </r>
      </set>
      <set comment="kpoint 35">
       <r>   -7.4092    1.0000 </r>
       <r>   33.2017    0.0000 </r>
       <r>   38.4040    0.0000 </r>
       <r>   65.3255    0.0000 </r>
      </set>
      <set comment="kpoint 36">
       <r>   -5.6925    1.0000 </r>
       <r>   29.3309    0.0000 </r>
       <r>   38.3382    0.0000 </r>
       <r>   66.6804    0.0000 </r>
      </set>
      <set comment="kpoint 37">
       <r>   -3.6343    1.0000 </r>
       <r>   24.4486    0.0000 </r>
       <r>   40.0703    0.0000 </r>
       <r>   66.4319    0.0000 </r>
      </set>
      <set comment="kpoint 38">
       <r>   -1.2962    1.0000 </r>
       <r>   19.8390    0.0000 </r>
       <r>   42.3509    0.0000 </r>
       <r>   62.6105    0.0000 </r>
      </set>
      <set comment="kpoint 39">
       <r>    1.1554    1.0000 </r>
       <r>   15.8472    0.0000 </r>
       <r>   44.8726    0.0000 </r>
       <r>   58.6155    0.0000 </r>
      </set>
      <set comment="kpoint 40">
       <r>    3.1232    0.0000 </r>
       <r>   13.1079    0.0000 </r>
       <r>   47.0040    0.0000 </r>
       <r>   55.6852    0.0000 </r>
      </set>
      <set comment="kpoint 41">
       <r>   -3.9770    1.0000 </r>
       <r>   29.4164    0.0000 </r>
       <r>   34.3513    0.0000 </r>
       <r>   66.0308    0.0000 </r>
      </set>
      <set comment="kpoint 42">
       <r>   -1.9312    1.0000 </r>
       <r>   25.8983    0.0000 </r>
       <r>   34.7147    0.0000 </r>
       <r>   61.6611    0.0000 </r>
      </set>
      <set comment="kpoint 43">
       <r>    0.3934    1.0000 </r>
       <r>   21.5106    0.0000 </r>
       <r>   36.8049    0.0000 </r>
       <r>   57.0119    0.0000 </r>
      </set>
      <set comment="kpoint 44">
       <r>    2.8318    0.0000 </r>
       <r>   17.5969    0.0000 </r>
       <r>   39.3049    0.0000 </r>
       <r>   52.8601    0.0000 </r>
      </set>
      <set comment="kpoint 45">
       <r>    4.7596    0.0000 </r>
       <r>   14.9097    0.0000 </r>
       <r>   41.5003    0.0000 </r>
       <r>   49.8446    0.0000 </r>
      </set>
      <set comment="kpoint 46">
       <r>    0.1111    1.0000 </r>
       <r>   26.4233    0.0000 </r>
       <r>   31.1064    0.0000 </r>
       <r>   56.5223    0.0000 </r>
      </set>
      <set comment="kpoint 47">
       <r>    2.4277    0.7515 </r>
       <r>   23.3896    0.0000 </r>
       <r>   31.8784    0.0000 </r>
       <r>   51.7344    0.0000 </r>
      </set>
      <set comment="kpoint 48">
       <r>    4.8162    0.0000 </r>
       <r>   19.6949    0.0000 </r>
       <r>   34.2227    0.0000 </r>
       <r>   47.5098    0.0000 </r>
      </set>
      <set comment="kpoint 49">
       <r>    6.6931    0.0000 </r>
       <r>   17.1020    0.0000 </r>
       <r>   36.4410    0.0000 </r>
       <r>   44.4161    0.0000 </r>
      </set>
      <set comment="kpoint 50">
       <r>    4.7065    0.0000 </r>
       <r>   24.4079    0.0000 </r>
       <r>   28.6743    0.0000 </r>
       <r>   46.8860    0.0000 </r>
      </set>
      <set comment="kpoint 51">
       <r>    7.0344    0.0000 </r>
       <r>   22.0274    0.0000 </r>
       <r>   29.7965    0.0000 </r>
       <r>   42.6043    0.0000 </r>
      </set>
      <set comment="kpoint 52">
       <r>    8.8302    0.0000 </r>
       <r>   19.6674    0.0000 </r>
       <r>   31.9495    0.0000 </r>
       <r>   39.4188    0.0000 </r>
      </set>
      <set comment="kpoint 53">
       <r>    9.2875    0.0000 </r>
       <r>   23.7053    0.0000 </r>
       <r>   27.0528    0.0000 </r>
       <r>   38.2462    0.0000 </r>
      </set>
      <set comment="kpoint 54">
       <r>   10.9426    0.0000 </r>
       <r>   22.5424    0.0000 </r>
       <r>   28.2777    0.0000 </r>
       <r>   34.9072    0.0000 </r>
      </set>
      <set comment="kpoint 55">
       <r>   12.4736    0.0000 </r>
       <r>   25.1632    0.0000 </r>
       <r>   26.2421    0.0000 </r>
       <r>   31.2149    0.0000 </r>
      </set>
      <set comment="kpoint 56">
       <r>  -13.0300    1.0000 </r>
       <r>   47.0812    0.0000 </r>
       <r>   55.6069    0.0000 </r>
       <r>   55.6069    0.0000 </r>
      </set>
      <set comment="kpoint 57">
       <r>  -12.4466    1.0000 </r>
       <r>   43.8059    0.0000 </r>
       <r>   52.7494    0.0000 </r>
       <r>   56.2104    0.0000 </r>
      </set>
      <set comment="kpoint 58">
       <r>  -11.4708    1.0000 </r>
       <r>   38.3909    0.0000 </r>
       <r>   52.6751    0.0000 </r>
       <r>   57.2165    0.0000 </r>
      </set>
      <set comment="kpoint 59">
       <r>  -10.1225    1.0000 </r>
       <r>   32.5996    0.0000 </r>
       <r>   53.6376    0.0000 </r>
       <r>   58.6158    0.0000 </r>
      </set>
      <set comment="kpoint 60">
       <r>   -8.3983    1.0000 </r>
       <r>   27.0492    0.0000 </r>
       <r>   55.1514    0.0000 </r>
       <r>   60.4194    0.0000 </r>
      </set>
      <set comment="kpoint 61">
       <r>   -6.3284    1.0000 </r>
       <r>   21.8662    0.0000 </r>
       <r>   57.0445    0.0000 </r>
       <r>   62.6136    0.0000 </r>
      </set>
      <set comment="kpoint 62">
       <r>   -3.9716    1.0000 </r>
       <r>   17.1498    0.0000 </r>
       <r>   59.1872    0.0000 </r>
       <r>   65.1814    0.0000 </r>
      </set>
      <set comment="kpoint 63">
       <r>   -1.4921    1.0000 </r>
       <r>   13.0944    0.0000 </r>
       <r>   61.3548    0.0000 </r>
       <r>   68.0641    0.0000 </r>
      </set>
      <set comment="kpoint 64">
       <r>    0.5006    1.0000 </r>
       <r>   10.2938    0.0000 </r>
       <r>   62.9259    0.0000 </r>
       <r>   70.8976    0.0000 </r>
      </set>
      <set comment="kpoint 65">
       <r>  -11.8609    1.0000 </r>
       <r>   42.7388    0.0000 </r>
       <r>   49.1468    0.0000 </r>
       <r>   55.3273    0.0000 </r>
      </set>
      <set comment="kpoint 66">
       <r>  -10.8871    1.0000 </r>
       <r>   38.6100    0.0000 </r>
       <r>   47.9481    0.0000 </r>
       <r>   56.1367    0.0000 </r>
      </set>
      <set comment="kpoint 67">
       <r>   -9.5381    1.0000 </r>
       <r>   33.0787    0.0000 </r>
       <r>   48.7423    0.0000 </r>
       <r>   57.4559    0.0000 </r>
      </set>
      <set comment="kpoint 68">
       <r>   -7.8123    1.0000 </r>
       <r>   27.5963    0.0000 </r>
       <r>   50.2550    0.0000 </r>
       <r>   59.2009    0.0000 </r>
      </set>
      <set comment="kpoint 69">
       <r>   -5.7440    1.0000 </r>
       <r>   22.4384    0.0000 </r>
       <r>   52.2066    0.0000 </r>
       <r>   61.3228    0.0000 </r>
      </set>
      <set comment="kpoint 70">
       <r>   -3.3901    1.0000 </r>
       <r>   17.7345    0.0000 </r>
       <r>   54.4649    0.0000 </r>
       <r>   63.7741    0.0000 </r>
      </set>
      <set comment="kpoint 71">
       <r>   -0.9174    1.0000 </r>
       <r>   13.6848    0.0000 </r>
       <r>   56.8252    0.0000 </r>
       <r>   66.4131    0.0000 </r>
      </set>
      <set comment="kpoint 72">
       <r>    1.0811    1.0000 </r>
       <r>   10.8985    0.0000 </r>
       <r>   58.6796    0.0000 </r>
       <r>   68.3310    0.0000 </r>
      </set>
      <set comment="kpoint 73">
       <r>   -9.9142    1.0000 </r>
       <r>   37.8365    0.0000 </r>
       <r>   43.4736    0.0000 </r>
       <r>   56.8553    0.0000 </r>
      </set>
      <set comment="kpoint 74">
       <r>   -8.5649    1.0000 </r>
       <r>   33.7189    0.0000 </r>
       <r>   42.9043    0.0000 </r>
       <r>   58.1292    0.0000 </r>
      </set>
      <set comment="kpoint 75">
       <r>   -6.8455    1.0000 </r>
       <r>   28.4663    0.0000 </r>
       <r>   44.2092    0.0000 </r>
       <r>   59.8286    0.0000 </r>
      </set>
      <set comment="kpoint 76">
       <r>   -4.7817    1.0000 </r>
       <r>   23.3712    0.0000 </r>
       <r>   46.1370    0.0000 </r>
       <r>   61.8759    0.0000 </r>
      </set>
      <set comment="kpoint 77">
       <r>   -2.4334    1.0000 </r>
       <r>   18.6974    0.0000 </r>
       <r>   48.4405    0.0000 </r>
       <r>   64.0967    0.0000 </r>
      </set>
      <set comment="kpoint 78">
       <r>    0.0315    1.0000 </r>
       <r>   14.6716    0.0000 </r>
       <r>   50.9172    0.0000 </r>
       <r>   64.4719    0.0000 </r>
      </set>
      <set comment="kpoint 79">
       <r>    2.0216    1.0000 </r>
       <r>   11.9052    0.0000 </r>
       <r>   52.9810    0.0000 </r>
       <r>   62.1052    0.0000 </r>
      </set>
      <set comment="kpoint 80">
       <r>   -7.2178    1.0000 </r>
       <r>   33.3516    0.0000 </r>
       <r>   38.6048    0.0000 </r>
       <r>   59.3708    0.0000 </r>
      </set>
      <set comment="kpoint 81">
       <r>   -5.5017    1.0000 </r>
       <r>   29.5046    0.0000 </r>
       <r>   38.5232    0.0000 </r>
       <r>   61.0164    0.0000 </r>
      </set>
      <set comment="kpoint 82">
       <r>   -3.4415    1.0000 </r>
       <r>   24.6402    0.0000 </r>
       <r>   40.2495    0.0000 </r>
       <r>   62.8578    0.0000 </r>
      </set>
      <set comment="kpoint 83">
       <r>   -1.1017    1.0000 </r>
       <r>   20.0355    0.0000 </r>
       <r>   42.5244    0.0000 </r>
       <r>   62.4553    0.0000 </r>
      </set>
      <set comment="kpoint 84">
       <r>    1.3518    1.0000 </r>
       <r>   16.0455    0.0000 </r>
       <r>   45.0303    0.0000 </r>
       <r>   58.7609    0.0000 </r>
      </set>
      <set comment="kpoint 85">
       <r>    3.3195    0.0000 </r>
       <r>   13.3100    0.0000 </r>
       <r>   47.1822    0.0000 </r>
       <r>   55.8828    0.0000 </r>
      </set>
      <set comment="kpoint 86">
       <r>   -3.7894    1.0000 </r>
       <r>   29.5721    0.0000 </r>
       <r>   34.5509    0.0000 </r>
       <r>   62.4390    0.0000 </r>
      </set>
      <set comment="kpoint 87">
       <r>   -1.7410    1.0000 </r>
       <r>   26.0835    0.0000 </r>
       <r>   34.9092    0.0000 </r>
       <r>   61.5154    0.0000 </r>
      </set>
      <set comment="kpoint 88">
       <r>    0.5916    1.0000 </r>
       <r>   21.7074    0.0000 </r>
       <r>   36.9957    0.0000 </r>
       <r>   57.1668    0.0000 </r>
      </set>
      <set comment="kpoint 89">
       <r>    3.0246    0.0000 </r>
       <r>   17.7960    0.0000 </r>
       <r>   39.4883    0.0000 </r>
       <r>   53.0454    0.0000 </r>
      </set>
      <set comment="kpoint 90">
       <r>    4.9546    0.0000 </r>
       <r>   15.1114    0.0000 </r>
       <r>   41.6786    0.0000 </r>
       <r>   50.0435    0.0000 </r>
      </set>
      <set comment="kpoint 91">
       <r>    0.3040    1.0000 </r>
       <r>   26.6015    0.0000 </r>
       <r>   31.3071    0.0000 </r>
       <r>   56.6661    0.0000 </r>
      </set>
      <set comment="kpoint 92">
       <r>    2.6139    0.0253 </r>
       <r>   23.5775    0.0000 </r>
       <r>   32.0718    0.0000 </r>
       <r>   51.9144    0.0000 </r>
      </set>
      <set comment="kpoint 93">
       <r>    5.0054    0.0000 </r>
       <r>   19.8931    0.0000 </r>
       <r>   34.4115    0.0000 </r>
       <r>   47.7031    0.0000 </r>
      </set>
      <set comment="kpoint 94">
       <r>    6.8843    0.0000 </r>
       <r>   17.3036    0.0000 </r>
       <r>   36.6260    0.0000 </r>
       <r>   44.6164    0.0000 </r>
      </set>
      <set comment="kpoint 95">
       <r>    4.8908    0.0000 </r>
       <r>   24.5924    0.0000 </r>
       <r>   28.8750    0.0000 </r>
       <r>   47.0765    0.0000 </r>
      </set>
      <set comment="kpoint 96">
       <r>    7.2257    0.0000 </r>
       <r>   22.2248    0.0000 </r>
       <r>   29.9919    0.0000 </r>
       <r>   42.8013    0.0000 </r>
      </set>
      <set comment="kpoint 97">
       <r>    9.0165    0.0000 </r>
       <r>   19.8684    0.0000 </r>
       <r>   32.1387    0.0000 </r>
       <r>   39.6191    0.0000 </r>
      </set>
      <set comment="kpoint 98">
       <r>    9.4661    0.0000 </r>
       <r>   23.8957    0.0000 </r>
       <r>   27.2535    0.0000 </r>
       <r>   38.4435    0.0000 </r>
      </set>
      <set comment="kpoint 99">
       <r>   11.1249    0.0000 </r>
       <r>   22.7431    0.0000 </r>
       <r>   28.4728    0.0000 </r>
       <r>   35.1080    0.0000 </r>
      </set>
      <set comment="kpoint 100">
       <r>   12.6413    0.0000 </r>
       <r>   25.3623    0.0000 </r>
       <r>   26.4427    0.0000 </r>
       <r>   31.4164    0.0000 </r>
      </set>
      <set comment="kpoint 101">
       <r>  -11.2815    1.0000 </r>
       <r>   42.0429    0.0000 </r>
       <r>   49.7436    0.0000 </r>
       <r>   49.7436    0.0000 </r>
      </set>
      <set comment="kpoint 102">
       <r>  -10.3069    1.0000 </r>
       <r>   38.7921    0.0000 </r>
       <r>   47.4567    0.0000 </r>
       <r>   50.7495    0.0000 </r>
      </set>
      <set comment="kpoint 103">
       <r>   -8.9571    1.0000 </r>
       <r>   33.5459    0.0000 </r>
       <r>   47.8875    0.0000 </r>
       <r>   52.1557    0.0000 </r>
      </set>
      <set comment="kpoint 104">
       <r>   -7.2298    1.0000 </r>
       <r>   28.1385    0.0000 </r>
       <r>   49.2732    0.0000 </r>
       <r>   53.9605    0.0000 </r>
      </set>
      <set comment="kpoint 105">
       <r>   -5.1646    1.0000 </r>
       <r>   23.0027    0.0000 </r>
       <r>   51.1411    0.0000 </r>
       <r>   56.1556    0.0000 </r>
      </set>
      <set comment="kpoint 106">
       <r>   -2.8089    1.0000 </r>
       <r>   18.3188    0.0000 </r>
       <r>   53.3484    0.0000 </r>
       <r>   58.7284    0.0000 </r>
      </set>
      <set comment="kpoint 107">
       <r>   -0.3390    1.0000 </r>
       <r>   14.2824    0.0000 </r>
       <r>   55.6051    0.0000 </r>
       <r>   61.6152    0.0000 </r>
      </set>
      <set comment="kpoint 108">
       <r>    1.6497    1.0000 </r>
       <r>   11.5017    0.0000 </r>
       <r>   57.3164    0.0000 </r>
       <r>   64.4624    0.0000 </r>
      </set>
      <set comment="kpoint 109">
       <r>   -9.3332    1.0000 </r>
       <r>   38.0560    0.0000 </r>
       <r>   44.0768    0.0000 </r>
       <r>   50.3204    0.0000 </r>
      </set>
      <set comment="kpoint 110">
       <r>   -7.9804    1.0000 </r>
       <r>   34.1717    0.0000 </r>
       <r>   43.3545    0.0000 </r>
       <r>   51.5268    0.0000 </r>
      </set>
      <set comment="kpoint 111">
       <r>   -6.2622    1.0000 </r>
       <r>   29.0046    0.0000 </r>
       <r>   44.5727    0.0000 </r>
       <r>   53.2405    0.0000 </r>
      </set>
      <set comment="kpoint 112">
       <r>   -4.2004    1.0000 </r>
       <r>   23.9392    0.0000 </r>
       <r>   46.4517    0.0000 </r>
       <r>   55.3544    0.0000 </r>
      </set>
      <set comment="kpoint 113">
       <r>   -1.8536    1.0000 </r>
       <r>   19.2846    0.0000 </r>
       <r>   48.7086    0.0000 </r>
       <r>   57.8122    0.0000 </r>
      </set>
      <set comment="kpoint 114">
       <r>    0.6096    1.0000 </r>
       <r>   15.2651    0.0000 </r>
       <r>   51.1110    0.0000 </r>
       <r>   60.4711    0.0000 </r>
      </set>
      <set comment="kpoint 115">
       <r>    2.5813    0.0676 </r>
       <r>   12.5062    0.0000 </r>
       <r>   53.0377    0.0000 </r>
       <r>   62.3395    0.0000 </r>
      </set>
      <set comment="kpoint 116">
       <r>   -6.6325    1.0000 </r>
       <r>   33.7985    0.0000 </r>
       <r>   39.2088    0.0000 </r>
       <r>   52.6380    0.0000 </r>
      </set>
      <set comment="kpoint 117">
       <r>   -4.9188    1.0000 </r>
       <r>   30.0263    0.0000 </r>
       <r>   39.0741    0.0000 </r>
       <r>   54.2941    0.0000 </r>
      </set>
      <set comment="kpoint 118">
       <r>   -2.8606    1.0000 </r>
       <r>   25.2034    0.0000 </r>
       <r>   40.7695    0.0000 </r>
       <r>   56.3350    0.0000 </r>
      </set>
      <set comment="kpoint 119">
       <r>   -0.5176    1.0000 </r>
       <r>   20.6207    0.0000 </r>
       <r>   43.0223    0.0000 </r>
       <r>   58.5832    0.0000 </r>
      </set>
      <set comment="kpoint 120">
       <r>    1.9254    1.0000 </r>
       <r>   16.6387    0.0000 </r>
       <r>   45.5021    0.0000 </r>
       <r>   58.9433    0.0000 </r>
      </set>
      <set comment="kpoint 121">
       <r>    3.8757    0.0000 </r>
       <r>   13.9125    0.0000 </r>
       <r>   47.5863    0.0000 </r>
       <r>   56.4532    0.0000 </r>
      </set>
      <set comment="kpoint 122">
       <r>   -3.2068    1.0000 </r>
       <r>   30.0881    0.0000 </r>
       <r>   35.1549    0.0000 </r>
       <r>   55.8926    0.0000 </r>
      </set>
      <set comment="kpoint 123">
       <r>   -1.1543    1.0000 </r>
       <r>   26.6470    0.0000 </r>
       <r>   35.4854    0.0000 </r>
       <r>   57.7370    0.0000 </r>
      </set>
      <set comment="kpoint 124">
       <r>    1.1686    1.0000 </r>
       <r>   22.2868    0.0000 </r>
       <r>   37.5522    0.0000 </r>
       <r>   57.3534    0.0000 </r>
      </set>
      <set comment="kpoint 125">
       <r>    3.5885    0.0000 </r>
       <r>   18.3880    0.0000 </r>
       <r>   40.0281    0.0000 </r>
       <r>   53.5786    0.0000 </r>
      </set>
      <set comment="kpoint 126">
       <r>    5.5119    0.0000 </r>
       <r>   15.7145    0.0000 </r>
       <r>   42.1942    0.0000 </r>
       <r>   50.6384    0.0000 </r>
      </set>
      <set comment="kpoint 127">
       <r>    0.8850    1.0000 </r>
       <r>   27.1608    0.0000 </r>
       <r>   31.9122    0.0000 </r>
       <r>   56.8735    0.0000 </r>
      </set>
      <set comment="kpoint 128">
       <r>    3.1815    0.0000 </r>
       <r>   24.1491    0.0000 </r>
       <r>   32.6558    0.0000 </r>
       <r>   52.4346    0.0000 </r>
      </set>
      <set comment="kpoint 129">
       <r>    5.5720    0.0000 </r>
       <r>   20.4826    0.0000 </r>
       <r>   34.9802    0.0000 </r>
       <r>   48.2756    0.0000 </r>
      </set>
      <set comment="kpoint 130">
       <r>    7.4374    0.0000 </r>
       <r>   17.9061    0.0000 </r>
       <r>   37.1764    0.0000 </r>
       <r>   45.2148    0.0000 </r>
      </set>
      <set comment="kpoint 131">
       <r>    5.4595    0.0000 </r>
       <r>   25.1558    0.0000 </r>
       <r>   29.4789    0.0000 </r>
       <r>   47.6451    0.0000 </r>
      </set>
      <set comment="kpoint 132">
       <r>    7.7829    0.0000 </r>
       <r>   22.8102    0.0000 </r>
       <r>   30.5797    0.0000 </r>
       <r>   43.3881    0.0000 </r>
      </set>
      <set comment="kpoint 133">
       <r>    9.5663    0.0000 </r>
       <r>   20.4710    0.0000 </r>
       <r>   32.7141    0.0000 </r>
       <r>   40.2209    0.0000 </r>
      </set>
      <set comment="kpoint 134">
       <r>   10.0174    0.0000 </r>
       <r>   24.4787    0.0000 </r>
       <r>   27.8574    0.0000 </r>
       <r>   39.0395    0.0000 </r>
      </set>
      <set comment="kpoint 135">
       <r>   11.6661    0.0000 </r>
       <r>   23.3450    0.0000 </r>
       <r>   29.0648    0.0000 </r>
       <r>   35.7114    0.0000 </r>
      </set>
      <set comment="kpoint 136">
       <r>   13.1730    0.0000 </r>
       <r>   25.9634    0.0000 </r>
       <r>   27.0466    0.0000 </r>
       <r>   32.0219    0.0000 </r>
      </set>
      <set comment="kpoint 137">
       <r>   -8.3603    1.0000 </r>
       <r>   37.7294    0.0000 </r>
       <r>   45.0826    0.0000 </r>
       <r>   45.0826    0.0000 </r>
      </set>
      <set comment="kpoint 138">
       <r>   -7.0100    1.0000 </r>
       <r>   34.7551    0.0000 </r>
       <r>   43.2549    0.0000 </r>
       <r>   46.4890    0.0000 </r>
      </set>
      <set comment="kpoint 139">
       <r>   -5.2968    1.0000 </r>
       <r>   29.8532    0.0000 </r>
       <r>   44.1022    0.0000 </r>
       <r>   48.2928    0.0000 </r>
      </set>
      <set comment="kpoint 140">
       <r>   -3.2373    1.0000 </r>
       <r>   24.8719    0.0000 </r>
       <r>   45.8372    0.0000 </r>
       <r>   50.4879    0.0000 </r>
      </set>
      <set comment="kpoint 141">
       <r>   -0.8911    1.0000 </r>
       <r>   20.2502    0.0000 </r>
       <r>   47.9852    0.0000 </r>
       <r>   53.0577    0.0000 </r>
      </set>
      <set comment="kpoint 142">
       <r>    1.5563    1.0000 </r>
       <r>   16.2530    0.0000 </r>
       <r>   50.2349    0.0000 </r>
       <r>   55.9436    0.0000 </r>
      </set>
      <set comment="kpoint 143">
       <r>    3.5103    0.0000 </r>
       <r>   13.5105    0.0000 </r>
       <r>   51.9833    0.0000 </r>
       <r>   58.7919    0.0000 </r>
      </set>
      <set comment="kpoint 144">
       <r>   -5.6619    1.0000 </r>
       <r>   34.4063    0.0000 </r>
       <r>   40.2209    0.0000 </r>
       <r>   46.4749    0.0000 </r>
      </set>
      <set comment="kpoint 145">
       <r>   -3.9515    1.0000 </r>
       <r>   30.8660    0.0000 </r>
       <r>   39.9188    0.0000 </r>
       <r>   48.0692    0.0000 </r>
      </set>
      <set comment="kpoint 146">
       <r>   -1.8959    1.0000 </r>
       <r>   26.1268    0.0000 </r>
       <r>   41.5070    0.0000 </r>
       <r>   50.1500    0.0000 </r>
      </set>
      <set comment="kpoint 147">
       <r>    0.4360    1.0000 </r>
       <r>   21.5814    0.0000 </r>
       <r>   43.6912    0.0000 </r>
       <r>   52.5979    0.0000 </r>
      </set>
      <set comment="kpoint 148">
       <r>    2.8689    0.0000 </r>
       <r>   17.6229    0.0000 </r>
       <r>   46.0854    0.0000 </r>
       <r>   55.2563    0.0000 </r>
      </set>
      <set comment="kpoint 149">
       <r>    4.8063    0.0000 </r>
       <r>   14.9171    0.0000 </r>
       <r>   48.0467    0.0000 </r>
       <r>   57.1035    0.0000 </r>
      </set>
      <set comment="kpoint 150">
       <r>   -2.2409    1.0000 </r>
       <r>   30.8974    0.0000 </r>
       <r>   36.1607    0.0000 </r>
       <r>   49.5518    0.0000 </r>
      </set>
      <set comment="kpoint 151">
       <r>   -0.1975    1.0000 </r>
       <r>   27.5537    0.0000 </r>
       <r>   36.4245    0.0000 </r>
       <r>   51.5498    0.0000 </r>
      </set>
      <set comment="kpoint 152">
       <r>    2.1207    1.0000 </r>
       <r>   23.2474    0.0000 </r>
       <r>   38.4468    0.0000 </r>
       <r>   53.7930    0.0000 </r>
      </set>
      <set comment="kpoint 153">
       <r>    4.5324    0.0000 </r>
       <r>   19.3719    0.0000 </r>
       <r>   40.8939    0.0000 </r>
       <r>   54.1631    0.0000 </r>
      </set>
      <set comment="kpoint 154">
       <r>    6.4359    0.0000 </r>
       <r>   16.7186    0.0000 </r>
       <r>   43.0027    0.0000 </r>
       <r>   51.6106    0.0000 </r>
      </set>
      <set comment="kpoint 155">
       <r>    1.8374    1.0000 </r>
       <r>   28.0484    0.0000 </r>
       <r>   32.9180    0.0000 </r>
       <r>   53.3571    0.0000 </r>
      </set>
      <set comment="kpoint 156">
       <r>    4.1302    0.0000 </r>
       <r>   25.0985    0.0000 </r>
       <r>   33.6265    0.0000 </r>
       <r>   53.0227    0.0000 </r>
      </set>
      <set comment="kpoint 157">
       <r>    6.5045    0.0000 </r>
       <r>   21.4647    0.0000 </r>
       <r>   35.9222    0.0000 </r>
       <r>   49.2072    0.0000 </r>
      </set>
      <set comment="kpoint 158">
       <r>    8.3574    0.0000 </r>
       <r>   18.9102    0.0000 </r>
       <r>   38.0796    0.0000 </r>
       <r>   46.2093    0.0000 </r>
      </set>
      <set comment="kpoint 159">
       <r>    6.3933    0.0000 </r>
       <r>   26.0885    0.0000 </r>
       <r>   30.4847    0.0000 </r>
       <r>   48.5630    0.0000 </r>
      </set>
      <set comment="kpoint 160">
       <r>    8.7097    0.0000 </r>
       <r>   23.7848    0.0000 </r>
       <r>   31.5571    0.0000 </r>
       <r>   44.3601    0.0000 </r>
      </set>
      <set comment="kpoint 161">
       <r>   10.4760    0.0000 </r>
       <r>   21.4744    0.0000 </r>
       <r>   33.6659    0.0000 </r>
       <r>   41.2221    0.0000 </r>
      </set>
      <set comment="kpoint 162">
       <r>   10.9297    0.0000 </r>
       <r>   25.4468    0.0000 </r>
       <r>   28.8632    0.0000 </r>
       <r>   40.0296    0.0000 </r>
      </set>
      <set comment="kpoint 163">
       <r>   12.5605    0.0000 </r>
       <r>   24.3472    0.0000 </r>
       <r>   30.0488    0.0000 </r>
       <r>   36.7161    0.0000 </r>
      </set>
      <set comment="kpoint 164">
       <r>   14.0506    0.0000 </r>
       <r>   26.9642    0.0000 </r>
       <r>   28.0524    0.0000 </r>
       <r>   33.0306    0.0000 </r>
      </set>
      <set comment="kpoint 165">
       <r>   -4.3196    1.0000 </r>
       <r>   34.4294    0.0000 </r>
       <r>   41.6260    0.0000 </r>
       <r>   41.6260    0.0000 </r>
      </set>
      <set comment="kpoint 166">
       <r>   -2.6042    1.0000 </r>
       <r>   31.8304    0.0000 </r>
       <r>   40.2064    0.0000 </r>
       <r>   43.4298    0.0000 </r>
      </set>
      <set comment="kpoint 167">
       <r>   -0.5602    1.0000 </r>
       <r>   27.3713    0.0000 </r>
       <r>   41.4110    0.0000 </r>
       <r>   45.6246    0.0000 </r>
      </set>
      <set comment="kpoint 168">
       <r>    1.7625    1.0000 </r>
       <r>   22.9109    0.0000 </r>
       <r>   43.4217    0.0000 </r>
       <r>   48.1942    0.0000 </r>
      </set>
      <set comment="kpoint 169">
       <r>    4.1820    0.0000 </r>
       <r>   18.9987    0.0000 </r>
       <r>   45.6567    0.0000 </r>
       <r>   51.0814    0.0000 </r>
      </set>
      <set comment="kpoint 170">
       <r>    6.0906    0.0000 </r>
       <r>   16.3195    0.0000 </r>
       <r>   47.4199    0.0000 </r>
       <r>   53.9301    0.0000 </r>
      </set>
      <set comment="kpoint 171">
       <r>   -0.8994    1.0000 </r>
       <r>   31.8769    0.0000 </r>
       <r>   37.5732    0.0000 </r>
       <r>   43.8056    0.0000 </r>
      </set>
      <set comment="kpoint 172">
       <r>    1.1359    1.0000 </r>
       <r>   28.7716    0.0000 </r>
       <r>   37.6597    0.0000 </r>
       <r>   45.7704    0.0000 </r>
      </set>
      <set comment="kpoint 173">
       <r>    3.4444    0.0000 </r>
       <r>   24.5690    0.0000 </r>
       <r>   39.5649    0.0000 </r>
       <r>   48.1879    0.0000 </r>
      </set>
      <set comment="kpoint 174">
       <r>    5.8397    0.0000 </r>
       <r>   20.7452    0.0000 </r>
       <r>   41.9023    0.0000 </r>
       <r>   50.8373    0.0000 </r>
      </set>
      <set comment="kpoint 175">
       <r>    7.7170    0.0000 </r>
       <r>   18.1227    0.0000 </r>
       <r>   43.8721    0.0000 </r>
       <r>   52.6703    0.0000 </r>
      </set>
      <set comment="kpoint 176">
       <r>    3.1621    0.0000 </r>
       <r>   29.2395    0.0000 </r>
       <r>   34.3243    0.0000 </r>
       <r>   47.5950    0.0000 </r>
      </set>
      <set comment="kpoint 177">
       <r>    5.4459    0.0000 </r>
       <r>   26.4063    0.0000 </r>
       <r>   34.9555    0.0000 </r>
       <r>   49.8011    0.0000 </r>
      </set>
      <set comment="kpoint 178">
       <r>    7.8001    0.0000 </r>
       <r>   22.8292    0.0000 </r>
       <r>   37.1887    0.0000 </r>
       <r>   50.1952    0.0000 </r>
      </set>
      <set comment="kpoint 179">
       <r>    9.6350    0.0000 </r>
       <r>   20.3142    0.0000 </r>
       <r>   39.3005    0.0000 </r>
       <r>   47.5856    0.0000 </r>
      </set>
      <set comment="kpoint 180">
       <r>    7.6995    0.0000 </r>
       <r>   27.3814    0.0000 </r>
       <r>   31.8921    0.0000 </r>
       <r>   49.5564    0.0000 </r>
      </set>
      <set comment="kpoint 181">
       <r>    9.9915    0.0000 </r>
       <r>   25.1394    0.0000 </r>
       <r>   32.9134    0.0000 </r>
       <r>   45.6860    0.0000 </r>
      </set>
      <set comment="kpoint 182">
       <r>   11.7312    0.0000 </r>
       <r>   22.8771    0.0000 </r>
       <r>   34.9766    0.0000 </r>
       <r>   42.6181    0.0000 </r>
      </set>
      <set comment="kpoint 183">
       <r>   12.1887    0.0000 </r>
       <r>   26.7915    0.0000 </r>
       <r>   30.2694    0.0000 </r>
       <r>   41.4053    0.0000 </r>
      </set>
      <set comment="kpoint 184">
       <r>   13.7917    0.0000 </r>
       <r>   25.7478    0.0000 </r>
       <r>   31.4189    0.0000 </r>
       <r>   38.1200    0.0000 </r>
      </set>
      <set comment="kpoint 185">
       <r>   15.2559    0.0000 </r>
       <r>   28.3625    0.0000 </r>
       <r>   29.4586    0.0000 </r>
       <r>   34.4416    0.0000 </r>
      </set>
      <set comment="kpoint 186">
       <r>    0.7994    1.0000 </r>
       <r>   32.3037    0.0000 </r>
       <r>   39.3769    0.0000 </r>
       <r>   39.3769    0.0000 </r>
      </set>
      <set comment="kpoint 187">
       <r>    2.8301    0.0000 </r>
       <r>   30.1363    0.0000 </r>
       <r>   38.3353    0.0000 </r>
       <r>   41.5718    0.0000 </r>
      </set>
      <set comment="kpoint 188">
       <r>    5.1186    0.0000 </r>
       <r>   26.2112    0.0000 </r>
       <r>   39.8287    0.0000 </r>
       <r>   44.1410    0.0000 </r>
      </set>
      <set comment="kpoint 189">
       <r>    7.4881    0.0000 </r>
       <r>   22.4872    0.0000 </r>
[...]
       </set>
       <set comment="band 4">
        <r>  0.0000  0.2146  0.2146  0.0000  0.0000  0.0000  0.0000  0.0000  0.0000 </r>
       </set>
      </set>
      <set comment="kpoint 188">
       <set comment="band 1">
        <r>  0.4556  0.0156  0.0156  0.0206  0.0000  0.0000  0.0000  0.0000  0.0000 </r>
       </set>
       <set comment="band 2">
        <r>  0.1733  0.0009  0.0009  0.1798  0.0000  0.0000  0.0000  0.0000  0.0000 </r>
       </set>
       <set comment="band 3">
        <r>  0.1624  0.1108  0.1108  0.0861  0.0000  0.0000  0.0000  0.0000  0.0000 </r>
       </set>
       <set comment="band 4">
        <r>  0.0000  0.2286  0.2286  0.0000  0.0000  0.0000  0.0000  0.0000  0.0000 </r>
       </set>
      </set>
      <set comment="kpoint 189">
       <set comment="band 1">
        <r>  0.5023  0.0171  0.0171  0.0176  0.0000  0.0000  0.0000  0.0000  0.0000 </r>
       </set>
       <set comment="band 2">
        <r>  0.1012  0.0016  0.0016  0.1898  0.0000  0.0000  0.0000  0.0000  0.0000 </r>
       </set>
       <set comment="band 3">
        <r>  0.2107  0.1240  0.1240  0.0515  0.0000  0.0000  0.0000  0.0000  0.0000 </r>
       </set>
       <set comment="band 4">
        <r>  0.0000  0.2562  0.2562  0.0000  0.0000  0.0000  0.0000  0.0000  0.0000 </r>
       </set>
      </set>
      <set comment="kpoint 190">
       <set comment="band 1">
        <r>  0.5755  0.0196  0.0196  0.0037  0.0000  0.0000  0.0000  0.0000  0.0000 </r>
       </set>
       <set comment="band 2">
        <r>  0.0189  0.0004  0.0004  0.2076  0.0000  0.0000  0.0000  0.0000  0.0000 </r>
       </set>
       <set comment="band 3">
        <r>  0.2550  0.1440  0.1440  0.0097  0.0000  0.0000  0.0000  0.0000  0.0000 </r>
       </set>
       <set comment="band 4">
        <r>  0.0000  0.3369  0.3369  0.0000  0.0000  0.0000  0.0000  0.0000  0.0000 </r>
       </set>
      </set>
      <set comment="kpoint 191">
       <set comment="band 1">
        <r>  0.4448  0.0195  0.0147  0.0195  0.0000  0.0000  0.0000  0.0000  0.0000 </r>
       </set>
       <set comment="band 2">
        <r>  0.3046  0.0495  0.0003  0.0495  0.0000  0.0000  0.0000  0.0000  0.0000 </r>
       </set>
       <set comment="band 3">
        <r>  0.0000  0.2021  0.0000  0.2021  0.0000  0.0000  0.0000  0.0000  0.0000 </r>
       </set>
       <set comment="band 4">
        <r>  0.0358  0.0398  0.3326  0.0398  0.0000  0.0000  0.0000  0.0000  0.0000 </r>
       </set>
      </set>
      <set comment="kpoint 192">
       <set comment="band 1">
        <r>  0.4697  0.0212  0.0161  0.0210  0.0000  0.0000  0.0000  0.0000  0.0000 </r>
       </set>
       <set comment="band 2">
        <r>  0.2011  0.0004  0.0008  0.1624  0.0000  0.0000  0.0000  0.0000  0.0000 </r>
       </set>
       <set comment="band 3">
        <r>  0.0780  0.2534  0.0031  0.0959  0.0000  0.0000  0.0000  0.0000  0.0000 </r>
       </set>
       <set comment="band 4">
        <r>  0.0485  0.0560  0.3525  0.0166  0.0000  0.0000  0.0000  0.0000  0.0000 </r>
       </set>
      </set>
      <set comment="kpoint 193">
       <set comment="band 1">
        <r>  0.5188  0.0229  0.0175  0.0176  0.0000  0.0000  0.0000  0.0000  0.0000 </r>
       </set>
       <set comment="band 2">
        <r>  0.1071  0.0008  0.0015  0.1927  0.0000  0.0000  0.0000  0.0000  0.0000 </r>
       </set>
       <set comment="band 3">
        <r>  0.1409  0.2740  0.0063  0.0504  0.0000  0.0000  0.0000  0.0000  0.0000 </r>
       </set>
       <set comment="band 4">
        <r>  0.0576  0.0610  0.3817  0.0024  0.0000  0.0000  0.0000  0.0000  0.0000 </r>
       </set>
      </set>
      <set comment="kpoint 194">
       <set comment="band 1">
        <r>  0.5925  0.0249  0.0204  0.0040  0.0000  0.0000  0.0000  0.0000  0.0000 </r>
       </set>
       <set comment="band 2">
        <r>  0.0190  0.0003  0.0004  0.2132  0.0000  0.0000  0.0000  0.0000  0.0000 </r>
       </set>
       <set comment="band 3">
        <r>  0.1921  0.3171  0.0113  0.0105  0.0000  0.0000  0.0000  0.0000  0.0000 </r>
       </set>
       <set comment="band 4">
        <r>  0.0336  0.0053  0.1256  0.1241  0.0000  0.0000  0.0000  0.0000  0.0000 </r>
       </set>
      </set>
      <set comment="kpoint 195">
       <set comment="band 1">
        <r>  0.4975  0.0226  0.0173  0.0226  0.0000  0.0000  0.0000  0.0000  0.0000 </r>
       </set>
       <set comment="band 2">
        <r>  0.2379  0.0603  0.0013  0.0603  0.0000  0.0000  0.0000  0.0000  0.0000 </r>
       </set>
       <set comment="band 3">
        <r>  0.0000  0.2021  0.0000  0.2021  0.0000  0.0000  0.0000  0.0000  0.0000 </r>
       </set>
       <set comment="band 4">
        <r>  0.0813  0.0143  0.3643  0.0143  0.0000  0.0000  0.0000  0.0000  0.0000 </r>
       </set>
      </set>
      <set comment="kpoint 196">
       <set comment="band 1">
        <r>  0.5502  0.0243  0.0195  0.0170  0.0000  0.0000  0.0000  0.0000  0.0000 </r>
       </set>
       <set comment="band 2">
        <r>  0.1221  0.0009  0.0017  0.1886  0.0000  0.0000  0.0000  0.0000  0.0000 </r>
       </set>
       <set comment="band 3">
        <r>  0.0709  0.2913  0.0000  0.0692  0.0000  0.0000  0.0000  0.0000  0.0000 </r>
       </set>
       <set comment="band 4">
        <r>  0.0732  0.0366  0.0608  0.0846  0.0000  0.0000  0.0000  0.0000  0.0000 </r>
       </set>
      </set>
      <set comment="kpoint 197">
       <set comment="band 1">
        <r>  0.6243  0.0250  0.0223  0.0035  0.0000  0.0000  0.0000  0.0000  0.0000 </r>
       </set>
       <set comment="band 2">
        <r>  0.0194  0.0000  0.0004  0.2238  0.0000  0.0000  0.0000  0.0000  0.0000 </r>
       </set>
       <set comment="band 3">
        <r>  0.1279  0.3531  0.0001  0.0130  0.0000  0.0000  0.0000  0.0000  0.0000 </r>
       </set>
       <set comment="band 4">
        <r>  0.0119  0.0186  0.0014  0.1700  0.0000  0.0000  0.0000  0.0000  0.0000 </r>
       </set>
      </set>
      <set comment="kpoint 198">
       <set comment="band 1">
        <r>  0.6063  0.0167  0.0222  0.0167  0.0000  0.0000  0.0000  0.0000  0.0000 </r>
       </set>
       <set comment="band 2">
        <r>  0.1361  0.0843  0.0019  0.0843  0.0000  0.0000  0.0000  0.0000  0.0000 </r>
       </set>
       <set comment="band 3">
        <r>  0.0000  0.2007  0.0000  0.2007  0.0000  0.0000  0.0000  0.0000  0.0000 </r>
       </set>
       <set comment="band 4">
        <r>  0.0346  0.0998  0.0016  0.0998  0.0000  0.0000  0.0000  0.0000  0.0000 </r>
       </set>
      </set>
      <set comment="kpoint 199">
       <set comment="band 1">
        <r>  0.6776  0.0177  0.0245  0.0031  0.0000  0.0000  0.0000  0.0000  0.0000 </r>
       </set>
       <set comment="band 2">
        <r>  0.0210  0.0017  0.0004  0.2423  0.0000  0.0000  0.0000  0.0000  0.0000 </r>
       </set>
       <set comment="band 3">
        <r>  0.0611  0.3571  0.0003  0.0233  0.0000  0.0000  0.0000  0.0000  0.0000 </r>
       </set>
       <set comment="band 4">
        <r>  0.0089  0.0295  0.0000  0.1385  0.0000  0.0000  0.0000  0.0000  0.0000 </r>
       </set>
      </set>
      <set comment="kpoint 200">
       <set comment="band 1">
        <r>  0.7394  0.0033  0.0259  0.0033  0.0000  0.0000  0.0000  0.0000  0.0000 </r>
       </set>
       <set comment="band 2">
        <r>  0.0208  0.1455  0.0003  0.1455  0.0000  0.0000  0.0000  0.0000  0.0000 </r>
       </set>
       <set comment="band 3">
        <r>  0.0000  0.1997  0.0000  0.1997  0.0000  0.0000  0.0000  0.0000  0.0000 </r>
       </set>
       <set comment="band 4">
        <r>  0.0034  0.0537  0.0000  0.0537  0.0000  0.0000  0.0000  0.0000  0.0000 </r>
       </set>
      </set>
      <set comment="kpoint 201">
       <set comment="band 1">
        <r>  0.4584  0.0200  0.0200  0.0200  0.0000  0.0000  0.0000  0.0000  0.0000 </r>
       </set>
       <set comment="band 2">
        <r>  0.3303  0.0259  0.0259  0.0259  0.0000  0.0000  0.0000  0.0000  0.0000 </r>
       </set>
       <set comment="band 3">
        <r>  0.0000  0.0701  0.2802  0.0701  0.0000  0.0000  0.0000  0.0000  0.0000 </r>
       </set>
       <set comment="band 4">
        <r>  0.0000  0.2102  0.0000  0.2102  0.0000  0.0000  0.0000  0.0000  0.0000 </r>
       </set>
      </set>
      <set comment="kpoint 202">
       <set comment="band 1">
        <r>  0.4854  0.0216  0.0216  0.0214  0.0000  0.0000  0.0000  0.0000  0.0000 </r>
       </set>
       <set comment="band 2">
        <r>  0.2294  0.0006  0.0006  0.1430  0.0000  0.0000  0.0000  0.0000  0.0000 </r>
       </set>
       <set comment="band 3">
        <r>  0.0837  0.1045  0.1045  0.1469  0.0000  0.0000  0.0000  0.0000  0.0000 </r>
       </set>
       <set comment="band 4">
        <r>  0.0000  0.2239  0.2239  0.0000  0.0000  0.0000  0.0000  0.0000  0.0000 </r>
       </set>
      </set>
      <set comment="kpoint 203">
       <set comment="band 1">
        <r>  0.5370  0.0233  0.0233  0.0175  0.0000  0.0000  0.0000  0.0000  0.0000 </r>
       </set>
       <set comment="band 2">
        <r>  0.1135  0.0007  0.0007  0.1951  0.0000  0.0000  0.0000  0.0000  0.0000 </r>
       </set>
       <set comment="band 3">
        <r>  0.1698  0.1178  0.1178  0.0676  0.0000  0.0000  0.0000  0.0000  0.0000 </r>
       </set>
       <set comment="band 4">
        <r>  0.0000  0.2510  0.2510  0.0000  0.0000  0.0000  0.0000  0.0000  0.0000 </r>
       </set>
      </set>
      <set comment="kpoint 204">
       <set comment="band 1">
        <r>  0.6111  0.0256  0.0256  0.0043  0.0000  0.0000  0.0000  0.0000  0.0000 </r>
       </set>
       <set comment="band 2">
        <r>  0.0191  0.0003  0.0003  0.2187  0.0000  0.0000  0.0000  0.0000  0.0000 </r>
       </set>
       <set comment="band 3">
        <r>  0.2251  0.1375  0.1375  0.0129  0.0000  0.0000  0.0000  0.0000  0.0000 </r>
       </set>
       <set comment="band 4">
        <r>  0.0000  0.3272  0.3272  0.0000  0.0000  0.0000  0.0000  0.0000  0.0000 </r>
       </set>
      </set>
      <set comment="kpoint 205">
       <set comment="band 1">
        <r>  0.5155  0.0237  0.0216  0.0237  0.0000  0.0000  0.0000  0.0000  0.0000 </r>
       </set>
       <set comment="band 2">
        <r>  0.2556  0.0542  0.0003  0.0542  0.0000  0.0000  0.0000  0.0000  0.0000 </r>
       </set>
       <set comment="band 3">
        <r>  0.0000  0.2069  0.0000  0.2069  0.0000  0.0000  0.0000  0.0000  0.0000 </r>
       </set>
       <set comment="band 4">
        <r>  0.0379  0.0382  0.3529  0.0382  0.0000  0.0000  0.0000  0.0000  0.0000 </r>
       </set>
      </set>
      <set comment="kpoint 206">
       <set comment="band 1">
        <r>  0.5705  0.0259  0.0240  0.0175  0.0000  0.0000  0.0000  0.0000  0.0000 </r>
       </set>
       <set comment="band 2">
        <r>  0.1292  0.0011  0.0004  0.1866  0.0000  0.0000  0.0000  0.0000  0.0000 </r>
       </set>
       <set comment="band 3">
        <r>  0.0789  0.2746  0.0041  0.0819  0.0000  0.0000  0.0000  0.0000  0.0000 </r>
       </set>
       <set comment="band 4">
        <r>  0.0547  0.0518  0.3852  0.0059  0.0000  0.0000  0.0000  0.0000  0.0000 </r>
       </set>
      </set>
      <set comment="kpoint 207">
       <set comment="band 1">
        <r>  0.6445  0.0260  0.0277  0.0032  0.0000  0.0000  0.0000  0.0000  0.0000 </r>
       </set>
       <set comment="band 2">
        <r>  0.0195  0.0000  0.0003  0.2319  0.0000  0.0000  0.0000  0.0000  0.0000 </r>
       </set>
       <set comment="band 3">
        <r>  0.1474  0.3206  0.0091  0.0140  0.0000  0.0000  0.0000  0.0000  0.0000 </r>
       </set>
       <set comment="band 4">
        <r>  0.0342  0.0035  0.1299  0.1135  0.0000  0.0000  0.0000  0.0000  0.0000 </r>
       </set>
      </set>
      <set comment="kpoint 208">
       <set comment="band 1">
        <r>  0.6285  0.0176  0.0266  0.0176  0.0000  0.0000  0.0000  0.0000  0.0000 </r>
       </set>
       <set comment="band 2">
        <r>  0.1388  0.0837  0.0004  0.0837  0.0000  0.0000  0.0000  0.0000  0.0000 </r>
       </set>
       <set comment="band 3">
        <r>  0.0000  0.2079  0.0000  0.2079  0.0000  0.0000  0.0000  0.0000  0.0000 </r>
       </set>
       <set comment="band 4">
        <r>  0.0634  0.0505  0.0734  0.0505  0.0000  0.0000  0.0000  0.0000  0.0000 </r>
       </set>
      </set>
      <set comment="kpoint 209">
       <set comment="band 1">
        <r>  0.6989  0.0184  0.0296  0.0031  0.0000  0.0000  0.0000  0.0000  0.0000 </r>
       </set>
       <set comment="band 2">
        <r>  0.0212  0.0020  0.0002  0.2501  0.0000  0.0000  0.0000  0.0000  0.0000 </r>
       </set>
       <set comment="band 3">
        <r>  0.0639  0.3602  0.0001  0.0258  0.0000  0.0000  0.0000  0.0000  0.0000 </r>
       </set>
       <set comment="band 4">
        <r>  0.0105  0.0255  0.0014  0.1430  0.0000  0.0000  0.0000  0.0000  0.0000 </r>
       </set>
      </set>
      <set comment="kpoint 210">
       <set comment="band 1">
        <r>  0.7594  0.0032  0.0320  0.0032  0.0000  0.0000  0.0000  0.0000  0.0000 </r>
       </set>
       <set comment="band 2">
        <r>  0.0206  0.1514  0.0001  0.1514  0.0000  0.0000  0.0000  0.0000  0.0000 </r>
       </set>
       <set comment="band 3">
        <r>  0.0000  0.2075  0.0000  0.2075  0.0000  0.0000  0.0000  0.0000  0.0000 </r>
       </set>
       <set comment="band 4">
        <r>  0.0036  0.0550  0.0000  0.0550  0.0000  0.0000  0.0000  0.0000  0.0000 </r>
       </set>
      </set>
      <set comment="kpoint 211">
       <set comment="band 1">
        <r>  0.5487  0.0242  0.0242  0.0242  0.0000  0.0000  0.0000  0.0000  0.0000 </r>
       </set>
       <set comment="band 2">
        <r>  0.2663  0.0316  0.0316  0.0316  0.0000  0.0000  0.0000  0.0000  0.0000 </r>
       </set>
       <set comment="band 3">
        <r>  0.0000  0.0734  0.2934  0.0734  0.0000  0.0000  0.0000  0.0000  0.0000 </r>
       </set>
       <set comment="band 4">
        <r>  0.0000  0.2201  0.0000  0.2201  0.0000  0.0000  0.0000  0.0000  0.0000 </r>
       </set>
      </set>
      <set comment="kpoint 212">
       <set comment="band 1">
        <r>  0.6068  0.0250  0.0250  0.0193  0.0000  0.0000  0.0000  0.0000  0.0000 </r>
       </set>
       <set comment="band 2">
        <r>  0.1448  0.0024  0.0024  0.1677  0.0000  0.0000  0.0000  0.0000  0.0000 </r>
       </set>
       <set comment="band 3">
        <r>  0.0820  0.1190  0.1190  0.1259  0.0000  0.0000  0.0000  0.0000  0.0000 </r>
       </set>
       <set comment="band 4">
        <r>  0.0000  0.2468  0.2468  0.0000  0.0000  0.0000  0.0000  0.0000  0.0000 </r>
       </set>
      </set>
      <set comment="kpoint 213">
       <set comment="band 1">
        <r>  0.6797  0.0276  0.0276  0.0039  0.0000  0.0000  0.0000  0.0000  0.0000 </r>
       </set>
       <set comment="band 2">
        <r>  0.0202  0.0000  0.0000  0.2426  0.0000  0.0000  0.0000  0.0000  0.0000 </r>
       </set>
       <set comment="band 3">
        <r>  0.1656  0.1449  0.1449  0.0192  0.0000  0.0000  0.0000  0.0000  0.0000 </r>
       </set>
       <set comment="band 4">
        <r>  0.0000  0.3223  0.3223  0.0000  0.0000  0.0000  0.0000  0.0000  0.0000 </r>
       </set>
      </set>
      <set comment="kpoint 214">
       <set comment="band 1">
        <r>  0.6666  0.0191  0.0255  0.0191  0.0000  0.0000  0.0000  0.0000  0.0000 </r>
       </set>
       <set comment="band 2">
        <r>  0.1437  0.0816  0.0023  0.0816  0.0000  0.0000  0.0000  0.0000  0.0000 </r>
       </set>
       <set comment="band 3">
        <r>  0.0000  0.2177  0.0000  0.2177  0.0000  0.0000  0.0000  0.0000  0.0000 </r>
       </set>
       <set comment="band 4">
        <r>  0.0411  0.0277  0.4135  0.0277  0.0000  0.0000  0.0000  0.0000  0.0000 </r>
       </set>
      </set>
      <set comment="kpoint 215">
       <set comment="band 1">
        <r>  0.7351  0.0193  0.0283  0.0032  0.0000  0.0000  0.0000  0.0000  0.0000 </r>
       </set>
       <set comment="band 2">
        <r>  0.0221  0.0027  0.0001  0.2600  0.0000  0.0000  0.0000  0.0000  0.0000 </r>
       </set>
       <set comment="band 3">
        <r>  0.0708  0.3487  0.0089  0.0310  0.0000  0.0000  0.0000  0.0000  0.0000 </r>
       </set>
       <set comment="band 4">
        <r>  0.0343  0.0010  0.1651  0.0819  0.0000  0.0000  0.0000  0.0000  0.0000 </r>
       </set>
      </set>
      <set comment="kpoint 216">
       <set comment="band 1">
        <r>  0.7929  0.0030  0.0321  0.0030  0.0000  0.0000  0.0000  0.0000  0.0000 </r>
       </set>
       <set comment="band 2">
        <r>  0.0206  0.1606  0.0002  0.1606  0.0000  0.0000  0.0000  0.0000  0.0000 </r>
       </set>
       <set comment="band 3">
        <r>  0.0000  0.2205  0.0000  0.2205  0.0000  0.0000  0.0000  0.0000  0.0000 </r>
       </set>
       <set comment="band 4">
        <r>  0.0044  0.0561  0.0012  0.0561  0.0000  0.0000  0.0000  0.0000  0.0000 </r>
       </set>
      </set>
      <set comment="kpoint 217">
       <set comment="band 1">
        <r>  0.7261  0.0187  0.0187  0.0187  0.0000  0.0000  0.0000  0.0000  0.0000 </r>
       </set>
       <set comment="band 2">
        <r>  0.1322  0.0586  0.0586  0.0586  0.0000  0.0000  0.0000  0.0000  0.0000 </r>
       </set>
       <set comment="band 3">
        <r>  0.0000  0.0814  0.3256  0.0814  0.0000  0.0000  0.0000  0.0000  0.0000 </r>
       </set>
       <set comment="band 4">
        <r>  0.0000  0.2442  0.0000  0.2442  0.0000  0.0000  0.0000  0.0000  0.0000 </r>
       </set>
      </set>
      <set comment="kpoint 218">
       <set comment="band 1">
        <r>  0.7892  0.0176  0.0176  0.0035  0.0000  0.0000  0.0000  0.0000  0.0000 </r>
       </set>
       <set comment="band 2">
        <r>  0.0245  0.0054  0.0054  0.2696  0.0000  0.0000  0.0000  0.0000  0.0000 </r>
       </set>
       <set comment="band 3">
        <r>  0.0695  0.1728  0.1728  0.0513  0.0000  0.0000  0.0000  0.0000  0.0000 </r>
       </set>
       <set comment="band 4">
        <r>  0.0000  0.3145  0.3145  0.0000  0.0000  0.0000  0.0000  0.0000  0.0000 </r>
       </set>
      </set>
      <set comment="kpoint 219">
       <set comment="band 1">
        <r>  0.8419  0.0032  0.0177  0.0032  0.0000  0.0000  0.0000  0.0000  0.0000 </r>
       </set>
       <set comment="band 2">
        <r>  0.0212  0.1690  0.0081  0.1690  0.0000  0.0000  0.0000  0.0000  0.0000 </r>
       </set>
       <set comment="band 3">
        <r>  0.0000  0.2428  0.0000  0.2428  0.0000  0.0000  0.0000  0.0000  0.0000 </r>
       </set>
       <set comment="band 4">
        <r>  0.0333  0.0000  0.4536  0.0000  0.0000  0.0000  0.0000  0.0000  0.0000 </r>
       </set>
      </set>
      <set comment="kpoint 220">
       <set comment="band 1">
        <r>  0.8878  0.0021  0.0021  0.0021  0.0000  0.0000  0.0000  0.0000  0.0000 </r>
       </set>
       <set comment="band 2">
        <r>  0.0168  0.1471  0.1471  0.1471  0.0000  0.0000  0.0000  0.0000  0.0000 </r>
       </set>
       <set comment="band 3">
        <r>  0.0000  0.1041  0.4162  0.1041  0.0000  0.0000  0.0000  0.0000  0.0000 </r>
       </set>
       <set comment="band 4">
        <r>  0.0000  0.3122  0.0000  0.3122  0.0000  0.0000  0.0000  0.0000  0.0000 </r>
       </set>
      </set>
     </set>
    </set>
   </array>
  </projected>
 </calculation>
 <structure name="finalpos" >
  <crystal>
   <varray name="basis" >
    <v>       1.43361010       0.00000000       0.00000000 </v>
    <v>       0.00000000       1.43361010       0.00000000 </v>
    <v>       0.00000000      -0.00000000       1.43361010 </v>
   </varray>
   <i name="volume">      2.94640985 </i>
   <varray name="rec_basis" >
    <v>       0.69753973      -0.00000000      -0.00000000 </v>
    <v>      -0.00000000       0.69753973       0.00000000 </v>
    <v>      -0.00000000      -0.00000000       0.69753973 </v>
   </varray>
  </crystal>
  <varray name="positions" >
   <v>       0.00000000       0.00000000       0.00000000 </v>
  </varray>
 </structure>
</modeling>
