    1    1    1    1
  0.2957216E+01  0.1435361E-09  0.1435361E-09  0.1435361E-09  0.5000000E-15
  1.000000000000000E-004
  CAR 
 jump2                                   
    1  286    8
 
  0.3742002E-15  0.3742002E-15  0.3742002E-15  0.1250000E-03
   1      -13.603238
   2       50.144605
   3       61.606642
   4       61.606642
   5       63.588165
   6      123.203808
   7      134.256770
   8      136.032426
 
  0.5000000E-01  0.3742002E-15  0.3742002E-15  0.7500000E-03
   1      -13.427035
   2       48.701837
   3       57.953749
   4       61.787698
   5      124.819855
   6      126.690849
   7      130.361063
   8      132.690038
 
  0.1000000E+00  0.3742002E-15  0.3742002E-15  0.7500000E-03
   1      -12.899100
   2       44.422682
   3       56.460387
   4       62.330625
   5       76.474197
   6      123.412600
   7      125.913447
   8      138.631371
 
  0.1500000E+00  0.3742002E-15  0.3742002E-15  0.7500000E-03
   1      -12.025462
   2       38.898880
   3       56.656195
   4       63.233159
   5       85.633906
   6      110.503569
   7      116.801925
   8      198.981402
 
  0.2000000E+00  0.3742002E-15  0.3742002E-15  0.7500000E-03
   1      -10.804288
   2       33.323880
   3       57.556508
   4       64.496419
   5       94.997654
   6      108.351221
   7      120.241413
   8      163.824665
 
  0.2500000E+00  0.3742002E-15  0.3742002E-15  0.7500000E-03
   1       -9.247045
   2       27.963278
   3       58.886534
   4       66.115893
   5       98.208693
   6      103.269710
   7      124.828744
   8      164.220301
 
  0.3000000E+00  0.3742002E-15  0.3742002E-15  0.7500000E-03
   1       -7.370918
   2       22.929829
   3       60.533454
   4       68.085079
   5       93.491357
   6      101.035622
   7      138.712095
   8      175.336277
 
  0.3500000E+00  0.3742002E-15  0.3742002E-15  0.7500000E-03
   1       -5.221187
   2       18.288939
   3       62.357040
   4       70.376388
   5       92.312130
   6      117.732793
   7      141.423304
   8      166.296041
 
  0.4000000E+00  0.3742002E-15  0.3742002E-15  0.7500000E-03
   1       -2.880043
   2       14.173348
   3       64.260506
   4       72.969886
   5       88.871048
   6      123.705013
   7      144.557506
   8      208.662002
 
  0.4500000E+00  0.3742002E-15  0.3742002E-15  0.7500000E-03
   1       -0.668739
   2       10.873129
   3       65.826644
   4       75.674169
   5      149.060512
   6      147.706172
   7      150.760098
   8      153.644076
 
  0.5000000E+00  0.3742002E-15  0.3742002E-15  0.3750000E-03
   1        0.431607
   2        9.416477
   3       66.492258
   4       77.338680
   5      151.859110
   6      151.226922
   7      155.057612
   8      220.799084
 
  0.5000000E-01  0.5000000E-01  0.3742002E-15  0.1500000E-02
   1      -13.250853
   2       47.829557
   3       55.597691
   4       60.425552
   5       68.195870
   6      121.040319
   7      135.223456
   8      135.093628
 
  0.1000000E+00  0.5000000E-01  0.3742002E-15  0.3000000E-02
   1      -12.722983
   2       44.313358
   3       53.624124
   4       60.723454
   5       72.860041
   6      116.547793
   7      121.500235
   8      138.850171
 
  0.1500000E+00  0.5000000E-01  0.3742002E-15  0.3000000E-02
   1      -11.847985
   2       39.008676
   3       53.690314
   4       61.560202
   5       69.809108
   6       93.815333
   7      117.063386
   8      131.119256
 
  0.2000000E+00  0.5000000E-01  0.3742002E-15  0.3000000E-02
   1      -10.630051
   2       33.467501
   3       54.587333
   4       62.773815
   5       96.925409
   6      112.478226
   7      126.164313
   8      168.481275
 
  0.2500000E+00  0.5000000E-01  0.3742002E-15  0.3000000E-02
   1       -9.073235
   2       28.123964
   3       55.965738
   4       64.340065
   5      101.988508
   6      112.951178
   7      146.440917
   8      162.468738
 
  0.3000000E+00  0.5000000E-01  0.3742002E-15  0.3000000E-02
   1       -7.197727
   2       23.097956
   3       57.693883
   4       66.237902
   5       98.009523
   6      129.087042
   7      148.464837
   8      176.244697
 
  0.3500000E+00  0.5000000E-01  0.3742002E-15  0.3000000E-02
   1       -5.045059
   2       18.465774
   3       59.670528
   4       68.423749
   5       98.307159
   6      140.801043
   7      138.067400
   8      159.453037
 
  0.4000000E+00  0.5000000E-01  0.3742002E-15  0.3000000E-02
   1       -2.704614
   2       14.352468
   3       61.766523
   4       70.844999
   5       81.900687
   6      149.649206
   7      145.769853
   8      156.986991
 
  0.4500000E+00  0.5000000E-01  0.3742002E-15  0.3000000E-02
   1       -0.489453
   2       11.059621
   3       63.599586
   4       73.287042
   5       90.968013
   6      149.032668
   7      154.276689
   8      220.391290
 
  0.5000000E+00  0.5000000E-01  0.3742002E-15  0.1500000E-02
   1        0.608929
   2        9.598483
   3       64.415764
   4       75.359645
   5       80.218584
   6      143.452485
   7      148.804098
   8      153.413806
 
  0.1000000E+00  0.1000000E+00  0.3742002E-15  0.1500000E-02
   1      -12.198353
   2       43.167610
   3       49.421274
   4       60.846958
   5       75.525414
   6      116.852064
   7      128.629680
   8      135.593232
 
  0.1500000E+00  0.1000000E+00  0.3742002E-15  0.3000000E-02
   1      -11.322445
   2       39.160263
   3       48.257168
   4       61.623099
   5      101.306987
   6      109.931744
   7      125.976611
   8      154.523257
 
  0.2000000E+00  0.1000000E+00  0.3742002E-15  0.3000000E-02
   1      -10.103587
   2       33.882276
   3       48.946771
   4       62.793256
   5       99.509784
   6      106.829755
   7      134.763958
   8      162.298991
 
  0.2500000E+00  0.1000000E+00  0.3742002E-15  0.3000000E-02
   1       -8.544889
   2       28.609011
   3       50.304861
   4       64.313759
   5       92.807594
   6      101.379910
   7      120.372627
   8      166.601992
 
  0.3000000E+00  0.1000000E+00  0.3742002E-15  0.3000000E-02
   1       -6.670638
   2       23.608854
   3       52.076015
   4       66.129556
   5       92.915094
   6      104.616156
   7      111.300035
   8      158.952028
 
  0.3500000E+00  0.1000000E+00  0.3742002E-15  0.3000000E-02
   1       -4.519945
   2       18.989378
   3       54.153996
   4       68.137718
   5       83.758256
   6       93.690768
   7      147.345879
   8      180.212946
 
  0.4000000E+00  0.1000000E+00  0.3742002E-15  0.3000000E-02
   1       -2.186393
   2       14.876158
   3       56.413240
   4       69.969374
   5      100.962181
   6      133.210213
   7      155.064902
   8      191.016015
 
  0.4500000E+00  0.1000000E+00  0.3742002E-15  0.3000000E-02
   1        0.026641
   2       11.599030
   3       58.537199
   4       69.684223
   5      121.279187
   6      128.589160
   7      138.301682
   8      161.509657
 
  0.5000000E+00  0.1000000E+00  0.3742002E-15  0.1500000E-02
   1        1.133706
   2       10.147743
   3       59.573276
   4       68.660881
   5       83.432544
   6      136.766980
   7      145.086443
   8      222.328313
 
  0.1500000E+00  0.1500000E+00  0.3742002E-15  0.1500000E-02
   1      -10.447253
   2       38.319889
   3       43.943530
   4       62.371312
   5       87.145637
   6      119.539660
   7      120.130200
   8      164.504571
 
  0.2000000E+00  0.1500000E+00  0.3742002E-15  0.3000000E-02
   1       -9.224634
   2       34.415730
   3       43.309862
   4       63.517534
   5       86.253059
   6      120.111378
   7      150.145450
   8      161.435420
 
  0.2500000E+00  0.1500000E+00  0.3742002E-15  0.3000000E-02
   1       -7.671809
   2       29.375889
   3       44.439842
   4       64.983468
   5      102.505310
   6      105.106822
   7      121.421365
   8      169.435031
 
  0.3000000E+00  0.1500000E+00  0.3742002E-15  0.3000000E-02
   1       -5.799920
   2       24.445357
   3       46.169322
   4       66.675805
   5       99.883530
   6      117.898649
   7      143.730178
   8      198.173336
 
  0.3500000E+00  0.1500000E+00  0.3742002E-15  0.3000000E-02
   1       -3.655723
   2       19.845507
   3       48.261464
   4       68.070192
   5       93.034431
   6      118.687208
   7      115.770462
   8      160.252286
 
  0.4000000E+00  0.1500000E+00  0.3742002E-15  0.3000000E-02
   1       -1.325743
   2       15.758771
   3       50.590079
   4       66.659684
   5       94.083468
   6      122.555441
   7      134.375104
   8      182.418664
 
  0.4500000E+00  0.1500000E+00  0.3742002E-15  0.3000000E-02
   1        0.877071
   2       12.496987
   3       52.841635
   4       63.730018
   5       85.065391
   6      115.845169
   7      126.235496
   8      140.428182
 
  0.5000000E+00  0.1500000E+00  0.3742002E-15  0.1500000E-02
   1        1.974939
   2       11.055860
   3       53.990410
   4       62.290593
   5       76.042415
   6      124.811913
   7      130.235558
   8      151.939492
 
  0.2000000E+00  0.2000000E+00  0.3742002E-15  0.1500000E-02
   1       -8.010101
   2       33.944785
   3       39.202075
   4       64.615421
   5      101.666358
   6      109.123712
   7      149.436545
   8      205.253751
 
  0.2500000E+00  0.2000000E+00  0.3742002E-15  0.3000000E-02
   1       -6.457965
   2       30.272477
   3       38.987211
   4       65.965264
   5      105.793751
   6      104.696055
   7      134.186142
   8      150.051625
 
  0.3000000E+00  0.2000000E+00  0.3742002E-15  0.3000000E-02
   1       -4.591659
   2       25.568379
   3       40.496680
   4       67.019638
   5      103.084143
   6      106.689224
   7      112.647164
   8      175.033515
 
  0.3500000E+00  0.2000000E+00  0.3742002E-15  0.3000000E-02
   1       -2.449697
   2       21.043137
   3       42.549083
   4       64.955471
   5       99.607600
   6      119.971258
   7      124.394166
   8      196.819099
 
  0.4000000E+00  0.2000000E+00  0.3742002E-15  0.3000000E-02
   1       -0.133667
   2       16.986297
   3       44.889120
   4       61.154030
   5       90.185047
   6      111.294829
   7      125.407813
   8      191.198002
 
  0.4500000E+00  0.2000000E+00  0.3742002E-15  0.3000000E-02
   1        2.062824
   2       13.751270
   3       47.202641
   4       57.837092
   5       83.970622
   6      112.049647
   7      121.285315
   8      199.665298
 
  0.5000000E+00  0.2000000E+00  0.3742002E-15  0.1500000E-02
   1        3.141686
   2       12.326445
   3       48.444755
   4       56.280082
   5      117.236179
   6      119.679690
   7      125.361253
   8      177.770415
 
  0.2500000E+00  0.2500000E+00  0.3742002E-15  0.1500000E-02
   1       -4.909551
   2       30.195496
   3       35.188821
   4       66.667266
   5      103.128469
   6      107.228530
   7      174.467784
   8      211.292086
 
  0.3000000E+00  0.2500000E+00  0.3742002E-15  0.3000000E-02
   1       -3.046662
   2       26.840554
   3       35.375479
   4       64.170758
   5      106.521438
   6      108.925721
   7      134.959989
   8      164.467553
 
  0.3500000E+00  0.2500000E+00  0.3742002E-15  0.3000000E-02
   1       -0.915908
   2       22.530408
   3       37.226381
   4       59.821662
   5      102.975183
   6      104.037874
   7      174.267766
   8      197.906315
 
  0.4000000E+00  0.2500000E+00  0.3742002E-15  0.3000000E-02
   1        1.392186
   2       18.544753
   3       39.521612
   4       55.678560
   5      107.459420
   6      115.141693
   7      128.244830
   8      189.836455
 
  0.4500000E+00  0.2500000E+00  0.3742002E-15  0.3000000E-02
   1        3.552671
   2       15.356097
   3       41.857795
   4       52.249680
   5      107.815678
   6      116.284316
   7      123.799927
   8      199.570371
 
  0.5000000E+00  0.2500000E+00  0.3742002E-15  0.1500000E-02
   1        4.605308
   2       13.957957
   3       43.110514
   4       50.632562
   5      119.891960
   6      120.794445
   7      177.024132
   8      204.663284
 
  0.3000000E+00  0.3000000E+00  0.3742002E-15  0.1500000E-02
   1       -1.198176
   2       27.136100
   3       31.902470
   4       59.378665
   5      104.369354
   6      109.133524
   7      137.240492
   8      186.318091
 
  0.3500000E+00  0.3000000E+00  0.3742002E-15  0.3000000E-02
   1        0.931445
   2       24.161495
   3       32.459060
   4       54.745144
   5       99.658790
   6      106.590038
   7      136.788793
   8      199.174448
 
  0.4000000E+00  0.3000000E+00  0.3742002E-15  0.3000000E-02
   1        3.208963
   2       20.404533
   3       34.585855
   4       50.529087
   5       94.225490
   6      121.071575
   7      122.938911
   8      187.967340
 
  0.4500000E+00  0.3000000E+00  0.3742002E-15  0.3000000E-02
   1        5.332575
   2       17.304555
   3       36.916297
   4       47.031648
   5       78.651589
   6      124.116119
   7      135.371047
   8      197.565220
 
  0.5000000E+00  0.3000000E+00  0.3742002E-15  0.1500000E-02
   1        6.355300
   2       15.948274
   3       38.207720
   4       45.358102
   5       88.484860
   6      115.326638
   7      117.112917
   8      180.698135
 
  0.3500000E+00  0.3500000E+00  0.3742002E-15  0.1500000E-02
   1        3.034352
   2       24.911531
   3       29.347932
   4       50.027355
   5       97.881012
   6      113.224380
   7      126.319769
   8      130.346162
 
  0.4000000E+00  0.3500000E+00  0.3742002E-15  0.3000000E-02
   1        5.278930
   2       22.441224
   3       30.246938
   4       45.761488
   5      101.426085
   6      134.029825
   7      147.762246
   8      198.003002
 
  0.4500000E+00  0.3500000E+00  0.3742002E-15  0.3000000E-02
   1        7.339369
   2       19.571064
   3       32.453931
   4       42.199623
   5      106.159934
   6      111.168848
   7      111.690352
   8      174.510844
 
  0.5000000E+00  0.3500000E+00  0.3742002E-15  0.1500000E-02
   1        8.316759
   2       18.290998
   3       33.777137
   4       40.460708
   5      104.827743
   6      109.282211
   7      135.494186
   8      211.022173
 
  0.4000000E+00  0.4000000E+00  0.3742002E-15  0.1500000E-02
   1        7.472348
   2       23.710512
   3       27.523205
   4       41.444764
   5      106.546788
   6      105.873200
   7      140.233795
   8      183.415790
 
  0.4500000E+00  0.4000000E+00  0.3742002E-15  0.3000000E-02
   1        9.443847
   2       22.071547
   3       28.665716
   4       37.800049
   5       84.259268
   6      106.403892
   7      107.072111
   8      151.308497
 
  0.5000000E+00  0.4000000E+00  0.3742002E-15  0.1500000E-02
   1       10.343870
   2       20.968002
   3       29.979638
   4       35.958848
   5      102.549009
   6      145.565016
   7      163.049977
   8      169.697828
 
  0.4500000E+00  0.4500000E+00  0.3742002E-15  0.1500000E-02
   1       11.289463
   2       24.117183
   3       26.428355
   4       33.999420
   5       84.828777
   6      100.909501
   7      154.130878
   8      161.400814
 
  0.5000000E+00  0.4500000E+00  0.3742002E-15  0.1500000E-02
   1       12.108548
   2       23.896818
   3       27.171835
   4       31.935848
   5       99.635729
   6      100.602258
   7      163.697283
   8      167.635669
 
  0.5000000E+00  0.5000000E+00  0.3742002E-15  0.3750000E-03
   1       12.880777
   2       26.063402
   3       26.063402
   4       29.409877
   5       99.379855
   6      100.743474
   7      167.568473
   8      165.430762
 
  0.5000000E-01  0.5000000E-01  0.5000000E-01  0.1000000E-02
   1      -13.074692
   2       47.184268
   3       55.779062
   4       55.779062
   5       65.636649
   6      118.043711
   7      133.814041
   8      134.395378
 
  0.1000000E+00  0.5000000E-01  0.5000000E-01  0.3000000E-02
   1      -12.546887
   2       44.201851
   3       52.949028
   4       56.323005
   5       66.979180
   6      112.392120
   7      121.694305
   8      132.256027
 
  0.1500000E+00  0.5000000E-01  0.5000000E-01  0.3000000E-02
   1      -11.670537
   2       39.116244
   3       52.727718
   4       57.228216
   5       67.980603
   6      115.840270
   7      127.354072
   8      153.775608
 
  0.2000000E+00  0.5000000E-01  0.5000000E-01  0.3000000E-02
   1      -10.455841
   2       33.610488
   3       53.533930
   4       58.487619
   5      101.949575
   6      114.780264
   7      128.339397
   8      155.177308
 
  0.2500000E+00  0.5000000E-01  0.5000000E-01  0.3000000E-02
   1       -8.899455
   2       28.284424
   3       54.874024
   4       60.112351
   5      104.130055
   6      107.656885
   7      125.434765
   8      157.238607
 
  0.3000000E+00  0.5000000E-01  0.5000000E-01  0.3000000E-02
   1       -7.024568
   2       23.265980
   3       56.578833
   4       62.090785
   5       97.480052
   6      118.996152
   7      148.585671
   8      168.588491
 
  0.3500000E+00  0.5000000E-01  0.5000000E-01  0.3000000E-02
   1       -4.868954
   2       18.642578
   3       58.548602
   4       64.411931
   5       81.694167
   6      106.305138
   7      114.087208
   8      147.726024
 
  0.4000000E+00  0.5000000E-01  0.5000000E-01  0.3000000E-02
   1       -2.531037
   2       14.527440
   3       60.624341
   4       67.044164
   5       94.796528
   6      151.959942
   7      149.552017
   8      207.085076
 
  0.4500000E+00  0.5000000E-01  0.5000000E-01  0.3000000E-02
   1       -0.317843
   2       11.237715
   3       62.451521
   4       69.849762
   5       89.854353
   6      143.208439
   7      144.785296
   8      172.905437
 
  0.5000000E+00  0.5000000E-01  0.5000000E-01  0.1500000E-02
   1        0.794683
   2        9.782541
   3       63.285659
   4       71.707096
   5       85.547932
   6      148.555469
   7      148.379742
   8      218.696095
 
  0.1000000E+00  0.1000000E+00  0.5000000E-01  0.3000000E-02
   1      -12.022329
   2       43.106958
   3       49.602661
   4       55.415708
   5       69.460962
   6      109.061746
   7      134.312640
   8      147.611083
 
  0.1500000E+00  0.1000000E+00  0.5000000E-01  0.6000000E-02
   1      -11.145061
   2       39.260058
   3       48.332437
   4       56.124111
   5       69.863582
   6      114.529658
   7      136.425279
   8      136.004233
 
  0.2000000E+00  0.1000000E+00  0.5000000E-01  0.6000000E-02
   1       -9.923508
   2       34.040747
   3       48.960083
   4       57.318211
   5       80.641355
   6       95.424050
   7      152.032484
   8      151.515365
 
  0.2500000E+00  0.1000000E+00  0.5000000E-01  0.6000000E-02
   1       -8.371195
   2       28.768763
   3       50.285819
   4       58.878710
   5       94.750266
   6      114.514913
   7      130.276392
   8      163.710096
 
  0.3000000E+00  0.1000000E+00  0.5000000E-01  0.6000000E-02
   1       -6.497575
   2       23.776575
   3       52.034411
   4       60.797276
   5       91.169772
   6      109.073059
   7      145.169956
   8      182.782971
 
  0.3500000E+00  0.1000000E+00  0.5000000E-01  0.6000000E-02
   1       -4.345292
   2       19.161338
   3       54.088772
   4       63.031003
   5       83.320094
   6      102.767377
   7      137.695937
   8      168.623383
 
  0.4000000E+00  0.1000000E+00  0.5000000E-01  0.6000000E-02
   1       -2.009362
   2       15.059113
   3       56.319773
   4       65.508032
   5      100.448464
   6      115.615585
   7      140.715683
   8      147.884356
 
  0.4500000E+00  0.1000000E+00  0.5000000E-01  0.6000000E-02
   1        0.200813
   2       11.780006
   3       58.382941
   4       67.937239
   5       96.343999
   6       98.232279
   7      126.386512
   8      140.854425
 
  0.5000000E+00  0.1000000E+00  0.5000000E-01  0.3000000E-02
   1        1.301887
   2       10.327624
   3       59.370408
   4       68.827033
   5       90.327886
   6      114.206026
   7      132.760555
   8      155.323806
 
  0.1500000E+00  0.1500000E+00  0.5000000E-01  0.3000000E-02
   1      -10.268492
   2       38.428148
   3       44.131122
   4       56.736963
   5       90.457378
   6      125.589865
   7      147.829895
   8      181.949119
 
  0.2000000E+00  0.1500000E+00  0.5000000E-01  0.6000000E-02
   1       -9.050757
   2       34.551996
   3       43.451082
   4       57.884706
   5       90.754939
   6      108.687114
   7      107.953819
   8      163.225638
 
  0.2500000E+00  0.1500000E+00  0.5000000E-01  0.6000000E-02
   1       -7.500000
   2       29.532161
   3       44.559296
   4       59.405548
   5       99.976950
   6      113.752386
   7      125.711823
   8      175.300510
 
  0.3000000E+00  0.1500000E+00  0.5000000E-01  0.6000000E-02
   1       -5.628813
   2       24.611302
   3       46.276958
   4       61.270319
   5      110.536997
   6      121.196727
   7      138.027408
   8      174.180061
 
  0.3500000E+00  0.1500000E+00  0.5000000E-01  0.6000000E-02
   1       -3.480424
   2       20.025710
   3       48.362937
   4       63.383052
   5       91.627530
   6       94.575807
   7      113.148312
   8      146.889081
 
  0.4000000E+00  0.1500000E+00  0.5000000E-01  0.6000000E-02
   1       -1.150621
   2       15.937694
   3       50.689853
   4       65.227949
   5       98.847722
   6      111.910656
   7      128.721024
   8      168.848026
 
  0.4500000E+00  0.1500000E+00  0.5000000E-01  0.6000000E-02
   1        1.056042
   2       12.677986
   3       52.920263
   4       63.808674
   5       92.510243
   6      112.845572
   7      124.785961
   8      177.881651
 
  0.5000000E+00  0.1500000E+00  0.5000000E-01  0.3000000E-02
   1        2.152039
   2       11.237862
   3       54.050998
   4       62.468729
   5       93.180579
   6      109.008080
   7      126.268533
   8      150.556191
 
  0.2000000E+00  0.2000000E+00  0.5000000E-01  0.3000000E-02
   1       -7.834740
   2       34.081977
   3       39.383425
   4       59.005106
   5       95.765948
   6      123.478779
   7      150.487406
   8      160.797762
 
  0.2500000E+00  0.2000000E+00  0.5000000E-01  0.6000000E-02
   1       -6.284671
   2       30.427065
   3       39.154800
   4       60.489480
   5       98.086898
   6      108.929706
   7      116.718811
   8      176.870855
 
  0.3000000E+00  0.2000000E+00  0.5000000E-01  0.6000000E-02
   1       -4.420287
   2       25.728395
   3       40.653947
   4       62.253607
   5       98.039129
   6      116.314299
   7      117.399090
   8      167.385808
 
  0.3500000E+00  0.2000000E+00  0.5000000E-01  0.6000000E-02
   1       -2.274744
   2       21.220119
   3       42.714489
   4       63.651471
   5      109.571824
   6      118.907868
   7      169.332946
   8      189.349933
 
  0.4000000E+00  0.2000000E+00  0.5000000E-01  0.6000000E-02
   1        0.048345
   2       17.165522
   3       45.049959
   4       61.215869
   5       91.255621
   6      110.279868
   7      122.617717
   8      183.558427
 
  0.4500000E+00  0.2000000E+00  0.5000000E-01  0.6000000E-02
   1        2.231429
   2       13.931533
   3       47.342109
   4       57.991679
   5       93.264988
   6      121.500260
   7      132.642713
   8      205.790575
 
  0.5000000E+00  0.2000000E+00  0.5000000E-01  0.3000000E-02
   1        3.313143
   2       12.508318
   3       48.545168
   4       56.459067
   5       95.530216
   6      112.902685
   7      112.684487
   8      143.316814
 
  0.2500000E+00  0.2500000E+00  0.5000000E-01  0.3000000E-02
   1       -4.738439
   2       30.343521
   3       35.369494
   4       61.878791
   5      104.080530
   6      107.627747
   7      113.122152
   8      158.842654
 
  0.3000000E+00  0.2500000E+00  0.5000000E-01  0.6000000E-02
   1       -2.875825
   2       26.997063
   3       35.548432
   4       62.897020
   5       88.175679
   6      102.601619
   7      150.255067
   8      199.355680
 
  0.3500000E+00  0.2500000E+00  0.5000000E-01  0.6000000E-02
   1       -0.741229
   2       22.698620
   3       37.388640
   4       59.868101
   5       94.263575
   6      119.009317
   7      151.694173
   8      186.988979
 
  0.4000000E+00  0.2500000E+00  0.5000000E-01  0.6000000E-02
   1        1.562810
   2       18.724496
   3       39.692065
   4       55.837392
   5       88.973365
   6      115.162993
   7      131.260679
   8      181.107402
 
  0.4500000E+00  0.2500000E+00  0.5000000E-01  0.6000000E-02
   1        3.731902
   2       15.537744
   3       42.027473
   4       52.427567
   5       98.408826
   6      115.630514
   7      114.814120
   8      167.562009
 
  0.5000000E+00  0.2500000E+00  0.5000000E-01  0.3000000E-02
   1        4.781540
   2       14.139949
   3       43.266015
   4       50.813810
   5      107.252323
   6      116.086130
   7      128.275135
   8      201.784237
 
  0.3000000E+00  0.3000000E+00  0.5000000E-01  0.3000000E-02
   1       -1.020909
   2       27.305985
   3       32.084246
   4       59.450695
   5       98.434775
   6      104.210068
   7      107.623171
   8      124.482739
 
  0.3500000E+00  0.3000000E+00  0.5000000E-01  0.6000000E-02
   1        1.094226
   2       24.328102
   3       32.632585
   4       54.891594
   5       83.951527
   6      102.064768
   7      108.475323
   8      125.836459
 
  0.4000000E+00  0.3000000E+00  0.5000000E-01  0.6000000E-02
   1        3.386499
   2       20.583061
   3       34.759046
   4       50.698723
   5      104.909069
   6      112.973708
   7      132.577625
   8      215.542495
 
  0.4500000E+00  0.3000000E+00  0.5000000E-01  0.6000000E-02
   1        5.508997
   2       17.485348
   3       37.085998
   4       47.209021
   5       84.669730
   6      104.552606
   7      135.997500
   8      191.844711
 
  0.5000000E+00  0.3000000E+00  0.5000000E-01  0.3000000E-02
   1        6.530849
   2       16.130256
   3       38.374222
   4       45.539683
   5       89.449866
   6      120.378134
   7      123.074219
   8      170.321459
 
  0.3500000E+00  0.3500000E+00  0.5000000E-01  0.3000000E-02
   1        3.201091
   2       25.075080
   3       29.528555
   4       50.193026
   5       88.406344
   6      107.760764
   7      128.184996
   8      223.645746
 
  0.4000000E+00  0.3500000E+00  0.5000000E-01  0.6000000E-02
   1        5.447245
   2       22.613497
   3       30.422363
   4       45.934755
   5       98.455910
   6      111.339606
   7      161.876026
   8      201.164529
 
  0.4500000E+00  0.3500000E+00  0.5000000E-01  0.6000000E-02
   1        7.511718
   2       19.751453
   3       32.625885
   4       42.378567
   5       95.449909
   6      108.541063
   7      131.181062
   8      167.049599
 
  0.5000000E+00  0.3500000E+00  0.5000000E-01  0.3000000E-02
   1        8.491289
   2       18.472963
   3       33.949483
   4       40.642459
   5       88.557031
   6      102.792045
   7      119.355740
   8      161.309979
 
  0.4000000E+00  0.4000000E+00  0.5000000E-01  0.3000000E-02
   1        7.638286
   2       23.880797
   3       27.703814
   4       41.621359
   5       99.078910
   6      106.252836
   7      113.004120
   8      139.790647
 
  0.4500000E+00  0.4000000E+00  0.5000000E-01  0.6000000E-02
   1        9.606127
   2       22.248995
   3       28.841862
   4       37.979417
   5       88.487652
   6      103.031620
   7      110.778894
   8      210.562590
 
  0.5000000E+00  0.4000000E+00  0.5000000E-01  0.3000000E-02
   1       10.509197
   2       21.149790
   3       30.151659
   4       36.140494
   5      104.250248
   6      112.385153
   7      117.443781
   8      164.417341
 
  0.4500000E+00  0.4500000E+00  0.5000000E-01  0.3000000E-02
   1       11.443942
   2       24.292830
   3       26.608955
   4       34.179281
   5       92.415935
   6      106.069699
   7      111.081811
   8      161.473568
 
  0.5000000E+00  0.4500000E+00  0.5000000E-01  0.3000000E-02
   1       12.248882
   2       24.077891
   3       27.348843
   4       32.117554
   5       96.288893
   6      104.125033
   7      106.071519
   8      166.954792
 
  0.5000000E+00  0.5000000E+00  0.5000000E-01  0.7500000E-03
   1       13.017964
   2       26.244000
   3       26.244000
   4       29.592073
   5       85.090908
   6      107.052188
   7      169.910190
   8      175.452455
 
  0.1000000E+00  0.1000000E+00  0.1000000E+00  0.1000000E-02
   1      -11.501103
   2       42.395167
   3       50.139271
   4       50.139271
   5       73.553170
   6      104.430755
   7      157.088046
   8      187.222972
 
  0.1500000E+00  0.1000000E+00  0.1000000E+00  0.3000000E-02
   1      -10.622932
   2       39.369328
   3       47.835414
   4       51.044917
   5       76.125332
   6      128.043250
   7      141.036271
   8      147.499702
 
  0.2000000E+00  0.1000000E+00  0.1000000E+00  0.3000000E-02
   1       -9.394517
   2       34.455506
   3       48.116075
   4       52.315447
   5       94.682481
   6      117.528648
   7      154.451899
   8      170.006329
 
  0.2500000E+00  0.1000000E+00  0.1000000E+00  0.3000000E-02
   1       -7.843151
   2       29.250965
   3       49.317172
   4       53.940366
   5       98.335928
   6      113.391132
   7      134.521201
   8      171.597735
 
  0.3000000E+00  0.1000000E+00  0.1000000E+00  0.3000000E-02
   1       -5.970818
   2       24.286319
   3       50.992758
   4       55.919527
   5      111.220157
   6      113.343111
   7      126.803416
   8      180.000107
 
  0.3500000E+00  0.1000000E+00  0.1000000E+00  0.3000000E-02
   1       -3.820636
   2       19.684086
   3       52.980230
   4       58.242099
   5      113.462932
   6      115.673386
   7      131.755116
   8      138.432179
 
  0.4000000E+00  0.1000000E+00  0.1000000E+00  0.3000000E-02
   1       -1.488016
   2       15.590572
   3       55.129114
   4       60.877372
   5       89.250225
   6      105.007162
   7      119.985553
   8      136.497182
 
  0.4500000E+00  0.1000000E+00  0.1000000E+00  0.3000000E-02
   1        0.718993
   2       12.316786
   3       57.078031
   4       63.690887
   5       88.504226
   6      111.880678
   7      126.401738
   8      159.953783
 