       N       E                     dE             d eps       ncg     rms          rms(c)
RMM:   1    -0.228682556160E+01   -0.22868E+01    0.00000E+00  4434   0.551E-04
RMM:   2    -0.228682556176E+01   -0.16044E-09    0.00000E+00  4399   0.539E-04
   1 F= -.22868256E+01 E0= -.22866695E+01  d E =-.312150E-03
