PROCAR lm decomposed
# of k-points:  286         # of bands:   8         # of ions:   1

 k-point    1 :    0.00000000 0.00000000 0.00000000     weight = 0.00012500

band   1 # energy  -13.60323832 # occ.  2.00000000
 
ion      s     py     pz     px    dxy    dyz    dz2    dxz    dx2    tot
  1  0.412  0.000  0.000  0.000  0.000  0.000  0.000  0.000  0.000  0.412
 
band   2 # energy   50.14460544 # occ.  0.00000000
 
ion      s     py     pz     px    dxy    dyz    dz2    dxz    dx2    tot
  1  0.493  0.000  0.000  0.000  0.000  0.000  0.000  0.000  0.000  0.493
 
band   3 # energy   61.60664222 # occ.  0.00000000
 
ion      s     py     pz     px    dxy    dyz    dz2    dxz    dx2    tot
  1  0.000  0.161  0.615  0.069  0.000  0.000  0.000  0.000  0.000  0.845
 
band   4 # energy   61.60664233 # occ.  0.00000000
 
ion      s     py     pz     px    dxy    dyz    dz2    dxz    dx2    tot
  1  0.000  0.258  0.002  0.585  0.000  0.000  0.000  0.000  0.000  0.845
 
band   5 # energy   63.58816455 # occ.  0.00000000
 
ion      s     py     pz     px    dxy    dyz    dz2    dxz    dx2    tot
  1  0.000  0.002  0.001  0.001  0.000  0.000  0.000  0.000  0.000  0.004
 
band   6 # energy  123.20380777 # occ.  0.00000000
 
ion      s     py     pz     px    dxy    dyz    dz2    dxz    dx2    tot
  1  0.295  0.000  0.000  0.001  0.000  0.000  0.000  0.000  0.000  0.297
 
band   7 # energy  134.25676985 # occ.  0.00000000
 
ion      s     py     pz     px    dxy    dyz    dz2    dxz    dx2    tot
  1  0.000  0.508  0.088  1.342  0.000  0.000  0.000  0.000  0.000  1.939
 
band   8 # energy  136.03242622 # occ.  0.00000000
 
ion      s     py     pz     px    dxy    dyz    dz2    dxz    dx2    tot
  1  0.000  0.392  0.085  0.033  0.000  0.000  0.000  0.000  0.000  0.510
 

 k-point    2 :    0.05000000 0.00000000 0.00000000     weight = 0.00075000

band   1 # energy  -13.42703505 # occ.  2.00000000
 
ion      s     py     pz     px    dxy    dyz    dz2    dxz    dx2    tot
  1  0.411  0.000  0.000  0.001  0.000  0.000  0.000  0.000  0.000  0.412
 
band   2 # energy   48.70183722 # occ.  0.00000000
 
ion      s     py     pz     px    dxy    dyz    dz2    dxz    dx2    tot
  1  0.427  0.000  0.000  0.073  0.000  0.000  0.000  0.000  0.000  0.500
 
band   3 # energy   57.95374900 # occ.  0.00000000
 
ion      s     py     pz     px    dxy    dyz    dz2    dxz    dx2    tot
  1  0.058  0.000  0.000  0.375  0.000  0.000  0.000  0.000  0.000  0.433
 
band   4 # energy   61.78769751 # occ.  0.00000000
 
ion      s     py     pz     px    dxy    dyz    dz2    dxz    dx2    tot
  1  0.000  0.555  0.291  0.000  0.000  0.000  0.000  0.000  0.000  0.846
 
band   5 # energy  124.81985549 # occ.  0.00000000
 
ion      s     py     pz     px    dxy    dyz    dz2    dxz    dx2    tot
  1  0.178  0.269  0.046  0.047  0.000  0.000  0.000  0.000  0.000  0.541
 
band   6 # energy  126.69084931 # occ.  0.00000000
 
ion      s     py     pz     px    dxy    dyz    dz2    dxz    dx2    tot
  1  0.107  0.373  0.072  0.028  0.000  0.000  0.000  0.000  0.000  0.579
 
band   7 # energy  130.36106311 # occ.  0.00000000
 
ion      s     py     pz     px    dxy    dyz    dz2    dxz    dx2    tot
  1  0.005  0.264  0.058  0.150  0.000  0.000  0.000  0.000  0.000  0.476
 
band   8 # energy  132.69003770 # occ.  0.00000000
 
ion      s     py     pz     px    dxy    dyz    dz2    dxz    dx2    tot
  1  0.000  0.229  0.256  0.004  0.000  0.000  0.000  0.000  0.000  0.489
 

 k-point    3 :    0.10000000 0.00000000 0.00000000     weight = 0.00075000

band   1 # energy  -12.89909963 # occ.  2.00000000
 
ion      s     py     pz     px    dxy    dyz    dz2    dxz    dx2    tot
  1  0.411  0.000  0.000  0.003  0.000  0.000  0.000  0.000  0.000  0.413
 
band   2 # energy   44.42268247 # occ.  0.00000000
 
ion      s     py     pz     px    dxy    dyz    dz2    dxz    dx2    tot
  1  0.290  0.000  0.000  0.181  0.000  0.000  0.000  0.000  0.000  0.471
 
band   3 # energy   56.46038681 # occ.  0.00000000
 
ion      s     py     pz     px    dxy    dyz    dz2    dxz    dx2    tot
  1  0.186  0.000  0.000  0.202  0.000  0.000  0.000  0.000  0.000  0.388
 
band   4 # energy   62.33062506 # occ.  0.00000000
 
ion      s     py     pz     px    dxy    dyz    dz2    dxz    dx2    tot
  1  0.000  0.607  0.244  0.000  0.000  0.000  0.000  0.000  0.000  0.851
 
band   5 # energy   76.47419687 # occ.  0.00000000
 
ion      s     py     pz     px    dxy    dyz    dz2    dxz    dx2    tot
  1  0.024  0.003  0.007  0.402  0.000  0.000  0.000  0.000  0.000  0.436
 
band   6 # energy  123.41259978 # occ.  0.00000000
 
ion      s     py     pz     px    dxy    dyz    dz2    dxz    dx2    tot
  1  0.024  0.002  0.232  0.088  0.000  0.000  0.000  0.000  0.000  0.345
 
band   7 # energy  125.91344739 # occ.  0.00000000
 
ion      s     py     pz     px    dxy    dyz    dz2    dxz    dx2    tot
  1  0.016  0.035  0.143  0.143  0.000  0.000  0.000  0.000  0.000  0.337
 
band   8 # energy  138.63137124 # occ.  0.00000000
 
ion      s     py     pz     px    dxy    dyz    dz2    dxz    dx2    tot
  1  0.045  0.026  0.077  1.463  0.000  0.000  0.000  0.000  0.000  1.610
 

 k-point    4 :    0.15000000 0.00000000 0.00000000     weight = 0.00075000

band   1 # energy  -12.02546206 # occ.  2.00000000
 
ion      s     py     pz     px    dxy    dyz    dz2    dxz    dx2    tot
  1  0.410  0.000  0.000  0.004  0.000  0.000  0.000  0.000  0.000  0.414
 
band   2 # energy   38.89888002 # occ.  0.00000000
 
ion      s     py     pz     px    dxy    dyz    dz2    dxz    dx2    tot
  1  0.220  0.000  0.000  0.234  0.000  0.000  0.000  0.000  0.000  0.455
 
band   3 # energy   56.65619532 # occ.  0.00000000
 
ion      s     py     pz     px    dxy    dyz    dz2    dxz    dx2    tot
  1  0.252  0.000  0.000  0.130  0.000  0.000  0.000  0.000  0.000  0.382
 
band   4 # energy   63.23315851 # occ.  0.00000000
 
ion      s     py     pz     px    dxy    dyz    dz2    dxz    dx2    tot
  1  0.000  0.863  0.000  0.000  0.000  0.000  0.000  0.000  0.000  0.863
 
band   5 # energy   85.63390625 # occ.  0.00000000
 
ion      s     py     pz     px    dxy    dyz    dz2    dxz    dx2    tot
  1  0.022  0.020  0.017  0.547  0.000  0.000  0.000  0.000  0.000  0.606
 
band   6 # energy  110.50356933 # occ.  0.00000000
 
ion      s     py     pz     px    dxy    dyz    dz2    dxz    dx2    tot
  1  0.132  0.019  0.191  0.546  0.000  0.000  0.000  0.000  0.000  0.888
 
band   7 # energy  116.80192491 # occ.  0.00000000
 
ion      s     py     pz     px    dxy    dyz    dz2    dxz    dx2    tot
  1  0.017  0.199  0.445  0.096  0.000  0.000  0.000  0.000  0.000  0.757
 
band   8 # energy  198.98140151 # occ.  0.00000000
 
ion      s     py     pz     px    dxy    dyz    dz2    dxz    dx2    tot
  1  0.136  0.026  0.015  0.256  0.000  0.000  0.000  0.000  0.000  0.433
 

 k-point    5 :    0.20000000 0.00000000 0.00000000     weight = 0.00075000

band   1 # energy  -10.80428757 # occ.  2.00000000
 
ion      s     py     pz     px    dxy    dyz    dz2    dxz    dx2    tot
  1  0.409  0.000  0.000  0.008  0.000  0.000  0.000  0.000  0.000  0.417
 
band   2 # energy   33.32387965 # occ.  0.00000000
 
ion      s     py     pz     px    dxy    dyz    dz2    dxz    dx2    tot
  1  0.190  0.000  0.000  0.226  0.000  0.000  0.000  0.000  0.000  0.417
 
band   3 # energy   57.55650827 # occ.  0.00000000
 
ion      s     py     pz     px    dxy    dyz    dz2    dxz    dx2    tot
  1  0.283  0.000  0.000  0.110  0.000  0.000  0.000  0.000  0.000  0.393
 
band   4 # energy   64.49641918 # occ.  0.00000000
 
ion      s     py     pz     px    dxy    dyz    dz2    dxz    dx2    tot
  1  0.000  0.796  0.080  0.000  0.000  0.000  0.000  0.000  0.000  0.876
 
band   5 # energy   94.99765439 # occ.  0.00000000
 
ion      s     py     pz     px    dxy    dyz    dz2    dxz    dx2    tot
  1  0.053  0.001  0.050  0.254  0.000  0.000  0.000  0.000  0.000  0.358
 
band   6 # energy  108.35122148 # occ.  0.00000000
 
ion      s     py     pz     px    dxy    dyz    dz2    dxz    dx2    tot
  1  0.002  0.610  0.115  0.043  0.000  0.000  0.000  0.000  0.000  0.769
 
band   7 # energy  120.24141277 # occ.  0.00000000
 
ion      s     py     pz     px    dxy    dyz    dz2    dxz    dx2    tot
  1  0.065  0.016  0.109  0.382  0.000  0.000  0.000  0.000  0.000  0.572
 
band   8 # energy  163.82466516 # occ.  0.00000000
 
ion      s     py     pz     px    dxy    dyz    dz2    dxz    dx2    tot
  1  0.064  0.290  0.067  0.056  0.000  0.000  0.000  0.000  0.000  0.478
 

 k-point    6 :    0.25000000 0.00000000 0.00000000     weight = 0.00075000

band   1 # energy   -9.24704509 # occ.  2.00000000
 
ion      s     py     pz     px    dxy    dyz    dz2    dxz    dx2    tot
  1  0.411  0.000  0.000  0.012  0.000  0.000  0.000  0.000  0.000  0.422
 
band   2 # energy   27.96327757 # occ.  0.00000000
 
ion      s     py     pz     px    dxy    dyz    dz2    dxz    dx2    tot
  1  0.174  0.000  0.000  0.209  0.000  0.000  0.000  0.000  0.000  0.383
 
band   3 # energy   58.88653381 # occ.  0.00000000
 
ion      s     py     pz     px    dxy    dyz    dz2    dxz    dx2    tot
  1  0.301  0.000  0.000  0.105  0.000  0.000  0.000  0.000  0.000  0.406
 
band   4 # energy   66.11589341 # occ.  0.00000000
 
ion      s     py     pz     px    dxy    dyz    dz2    dxz    dx2    tot
  1  0.000  0.437  0.459  0.000  0.000  0.000  0.000  0.000  0.000  0.896
 
band   5 # energy   98.20869331 # occ.  0.00000000
 
ion      s     py     pz     px    dxy    dyz    dz2    dxz    dx2    tot
  1  0.114  0.108  0.017  0.196  0.000  0.000  0.000  0.000  0.000  0.434
 
band   6 # energy  103.26970965 # occ.  0.00000000
 
ion      s     py     pz     px    dxy    dyz    dz2    dxz    dx2    tot
  1  0.003  0.087  0.009  0.769  0.000  0.000  0.000  0.000  0.000  0.868
 
band   7 # energy  124.82874416 # occ.  0.00000000
 
ion      s     py     pz     px    dxy    dyz    dz2    dxz    dx2    tot
  1  0.114  0.006  0.047  0.025  0.000  0.000  0.000  0.000  0.000  0.191
 
band   8 # energy  164.22030118 # occ.  0.00000000
 
ion      s     py     pz     px    dxy    dyz    dz2    dxz    dx2    tot
  1  0.026  0.268  0.712  0.310  0.000  0.000  0.000  0.000  0.000  1.316
 

 k-point    7 :    0.30000000 0.00000000 0.00000000     weight = 0.00075000

band   1 # energy   -7.37091793 # occ.  2.00000000
 
ion      s     py     pz     px    dxy    dyz    dz2    dxz    dx2    tot
  1  0.415  0.000  0.000  0.017  0.000  0.000  0.000  0.000  0.000  0.432
 
band   2 # energy   22.92982941 # occ.  0.00000000
 
ion      s     py     pz     px    dxy    dyz    dz2    dxz    dx2    tot
  1  0.162  0.000  0.000  0.190  0.000  0.000  0.000  0.000  0.000  0.352
 
band   3 # energy   60.53345413 # occ.  0.00000000
 
ion      s     py     pz     px    dxy    dyz    dz2    dxz    dx2    tot
  1  0.318  0.000  0.000  0.102  0.000  0.000  0.000  0.000  0.000  0.420
 
band   4 # energy   68.08507928 # occ.  0.00000000
 
ion      s     py     pz     px    dxy    dyz    dz2    dxz    dx2    tot
  1  0.000  0.226  0.701  0.000  0.000  0.000  0.000  0.000  0.000  0.926
 
band   5 # energy   93.49135697 # occ.  0.00000000
 
ion      s     py     pz     px    dxy    dyz    dz2    dxz    dx2    tot
  1  0.094  0.003  0.018  0.723  0.000  0.000  0.000  0.000  0.000  0.838
 
band   6 # energy  101.03562173 # occ.  0.00000000
 
ion      s     py     pz     px    dxy    dyz    dz2    dxz    dx2    tot
  1  0.013  0.076  0.351  0.135  0.000  0.000  0.000  0.000  0.000  0.575
 
band   7 # energy  138.71209478 # occ.  0.00000000
 
ion      s     py     pz     px    dxy    dyz    dz2    dxz    dx2    tot
  1  0.029  0.185  0.108  0.041  0.000  0.000  0.000  0.000  0.000  0.363
 
band   8 # energy  175.33627664 # occ.  0.00000000
 
ion      s     py     pz     px    dxy    dyz    dz2    dxz    dx2    tot
  1  0.092  0.115  0.100  0.016  0.000  0.000  0.000  0.000  0.000  0.322
 

 k-point    8 :    0.35000000 0.00000000 0.00000000     weight = 0.00075000

band   1 # energy   -5.22118699 # occ.  2.00000000
 
ion      s     py     pz     px    dxy    dyz    dz2    dxz    dx2    tot
  1  0.428  0.000  0.000  0.020  0.000  0.000  0.000  0.000  0.000  0.447
 
band   2 # energy   18.28893925 # occ.  0.00000000
 
ion      s     py     pz     px    dxy    dyz    dz2    dxz    dx2    tot
  1  0.145  0.000  0.000  0.177  0.000  0.000  0.000  0.000  0.000  0.323
 
band   3 # energy   62.35704045 # occ.  0.00000000
 
ion      s     py     pz     px    dxy    dyz    dz2    dxz    dx2    tot
  1  0.338  0.000  0.000  0.089  0.000  0.000  0.000  0.000  0.000  0.428
 
band   4 # energy   70.37638804 # occ.  0.00000000
 
ion      s     py     pz     px    dxy    dyz    dz2    dxz    dx2    tot
  1  0.000  0.571  0.425  0.000  0.000  0.000  0.000  0.000  0.000  0.996
 
band   5 # energy   92.31213047 # occ.  0.00000000
 
ion      s     py     pz     px    dxy    dyz    dz2    dxz    dx2    tot
  1  0.017  0.311  0.016  0.289  0.000  0.000  0.000  0.000  0.000  0.633
 
band   6 # energy  117.73279308 # occ.  0.00000000
 
ion      s     py     pz     px    dxy    dyz    dz2    dxz    dx2    tot
  1  0.090  0.214  0.013  0.344  0.000  0.000  0.000  0.000  0.000  0.661
 
band   7 # energy  141.42330427 # occ.  0.00000000
 
ion      s     py     pz     px    dxy    dyz    dz2    dxz    dx2    tot
  1  0.133  0.463  0.250  0.001  0.000  0.000  0.000  0.000  0.000  0.847
 
band   8 # energy  166.29604083 # occ.  0.00000000
 
ion      s     py     pz     px    dxy    dyz    dz2    dxz    dx2    tot
  1  0.005  0.032  0.021  0.153  0.000  0.000  0.000  0.000  0.000  0.212
 

 k-point    9 :    0.40000000 0.00000000 0.00000000     weight = 0.00075000

band   1 # energy   -2.88004304 # occ.  2.00000000
 
ion      s     py     pz     px    dxy    dyz    dz2    dxz    dx2    tot
  1  0.456  0.000  0.000  0.020  0.000  0.000  0.000  0.000  0.000  0.476
 
band   2 # energy   14.17334841 # occ.  0.00000000
 
ion      s     py     pz     px    dxy    dyz    dz2    dxz    dx2    tot
  1  0.115  0.000  0.000  0.167  0.000  0.000  0.000  0.000  0.000  0.283
 
band   3 # energy   64.26050579 # occ.  0.00000000
 
ion      s     py     pz     px    dxy    dyz    dz2    dxz    dx2    tot
  1  0.366  0.000  0.000  0.068  0.000  0.000  0.000  0.000  0.000  0.434
 
band   4 # energy   72.96988635 # occ.  0.00000000
 
ion      s     py     pz     px    dxy    dyz    dz2    dxz    dx2    tot
  1  0.000  0.783  0.305  0.000  0.000  0.000  0.000  0.000  0.000  1.088
 
band   5 # energy   88.87104828 # occ.  0.00000000
 
ion      s     py     pz     px    dxy    dyz    dz2    dxz    dx2    tot
  1  0.004  0.050  0.041  0.046  0.000  0.000  0.000  0.000  0.000  0.140
 
band   6 # energy  123.70501284 # occ.  0.00000000
 
ion      s     py     pz     px    dxy    dyz    dz2    dxz    dx2    tot
  1  0.107  0.078  0.347  0.264  0.000  0.000  0.000  0.000  0.000  0.795
 
band   7 # energy  144.55750606 # occ.  0.00000000
 
ion      s     py     pz     px    dxy    dyz    dz2    dxz    dx2    tot
  1  0.067  0.207  0.742  0.001  0.000  0.000  0.000  0.000  0.000  1.017
 
band   8 # energy  208.66200232 # occ.  0.00000000
 
ion      s     py     pz     px    dxy    dyz    dz2    dxz    dx2    tot
  1  0.137  0.043  0.007  0.245  0.000  0.000  0.000  0.000  0.000  0.432
 

 k-point   10 :    0.45000000 0.00000000 0.00000000     weight = 0.00075000

band   1 # energy   -0.66873882 # occ.  2.00000000
 
ion      s     py     pz     px    dxy    dyz    dz2    dxz    dx2    tot
  1  0.514  0.000  0.000  0.011  0.000  0.000  0.000  0.000  0.000  0.524
 
band   2 # energy   10.87312930 # occ.  0.00000000
 
ion      s     py     pz     px    dxy    dyz    dz2    dxz    dx2    tot
  1  0.055  0.000  0.000  0.179  0.000  0.000  0.000  0.000  0.000  0.234
 
band   3 # energy   65.82664421 # occ.  0.00000000
 
ion      s     py     pz     px    dxy    dyz    dz2    dxz    dx2    tot
  1  0.401  0.000  0.000  0.024  0.000  0.000  0.000  0.000  0.000  0.425
 
band   4 # energy   75.67416864 # occ.  0.00000000
 
ion      s     py     pz     px    dxy    dyz    dz2    dxz    dx2    tot
  1  0.000  0.384  0.922  0.000  0.000  0.000  0.000  0.000  0.000  1.305
 
band   5 # energy  149.06051245 # occ.  0.00000000
 
ion      s     py     pz     px    dxy    dyz    dz2    dxz    dx2    tot
  1  0.058  0.349  0.116  0.199  0.000  0.000  0.000  0.000  0.000  0.721
 
band   6 # energy  147.70617244 # occ.  0.00000000
 
ion      s     py     pz     px    dxy    dyz    dz2    dxz    dx2    tot
  1  0.132  0.545  0.054  0.042  0.000  0.000  0.000  0.000  0.000  0.773
 
band   7 # energy  150.76009809 # occ.  0.00000000
 
ion      s     py     pz     px    dxy    dyz    dz2    dxz    dx2    tot
  1  0.052  0.126  0.166  0.033  0.000  0.000  0.000  0.000  0.000  0.377
 
band   8 # energy  153.64407551 # occ.  0.00000000
 
ion      s     py     pz     px    dxy    dyz    dz2    dxz    dx2    tot
  1  0.001  0.001  0.091  0.228  0.000  0.000  0.000  0.000  0.000  0.322
 

 k-point   11 :    0.50000000 0.00000000 0.00000000     weight = 0.00037500

band   1 # energy    0.43160712 # occ.  2.00000000
 
ion      s     py     pz     px    dxy    dyz    dz2    dxz    dx2    tot
  1  0.569  0.000  0.000  0.000  0.000  0.000  0.000  0.000  0.000  0.569
 
band   2 # energy    9.41647658 # occ.  0.00000000
 
ion      s     py     pz     px    dxy    dyz    dz2    dxz    dx2    tot
  1  0.000  0.000  0.000  0.187  0.000  0.000  0.000  0.000  0.000  0.187
 
band   3 # energy   66.49225790 # occ.  0.00000000
 
ion      s     py     pz     px    dxy    dyz    dz2    dxz    dx2    tot
  1  0.421  0.000  0.000  0.000  0.000  0.000  0.000  0.000  0.000  0.421
 
band   4 # energy   77.33868040 # occ.  0.00000000
 
ion      s     py     pz     px    dxy    dyz    dz2    dxz    dx2    tot
  1  0.000  0.500  1.144  0.000  0.000  0.000  0.000  0.000  0.000  1.644
 
band   5 # energy  151.85911002 # occ.  0.00000000
 
ion      s     py     pz     px    dxy    dyz    dz2    dxz    dx2    tot
  1  0.052  0.494  0.068  0.150  0.000  0.000  0.000  0.000  0.000  0.765
 
band   6 # energy  151.22692161 # occ.  0.00000000
 
ion      s     py     pz     px    dxy    dyz    dz2    dxz    dx2    tot
  1  0.047  0.213  0.803  0.220  0.000  0.000  0.000  0.000  0.000  1.283
 
band   7 # energy  155.05761152 # occ.  0.00000000
 
ion      s     py     pz     px    dxy    dyz    dz2    dxz    dx2    tot
  1  0.004  0.088  0.060  0.074  0.000  0.000  0.000  0.000  0.000  0.226
 
band   8 # energy  220.79908357 # occ.  0.00000000
 
ion      s     py     pz     px    dxy    dyz    dz2    dxz    dx2    tot
  1  0.207  0.001  0.012  0.007  0.000  0.000  0.000  0.000  0.000  0.226
 

 k-point   12 :    0.05000000 0.05000000 0.00000000     weight = 0.00150000

band   1 # energy  -13.25085283 # occ.  2.00000000
 
ion      s     py     pz     px    dxy    dyz    dz2    dxz    dx2    tot
  1  0.411  0.001  0.000  0.001  0.000  0.000  0.000  0.000  0.000  0.412
 
band   2 # energy   47.82955654 # occ.  0.00000000
 
ion      s     py     pz     px    dxy    dyz    dz2    dxz    dx2    tot
  1  0.416  0.044  0.000  0.044  0.000  0.000  0.000  0.000  0.000  0.503
 
band   3 # energy   55.59769148 # occ.  0.00000000
 
ion      s     py     pz     px    dxy    dyz    dz2    dxz    dx2    tot
  1  0.000  0.232  0.000  0.232  0.000  0.000  0.000  0.000  0.000  0.465
 
band   4 # energy   60.42555151 # occ.  0.00000000
 
ion      s     py     pz     px    dxy    dyz    dz2    dxz    dx2    tot
  1  0.057  0.165  0.000  0.165  0.000  0.000  0.000  0.000  0.000  0.388
 
band   5 # energy   68.19587026 # occ.  0.00000000
 
ion      s     py     pz     px    dxy    dyz    dz2    dxz    dx2    tot
  1  0.022  0.244  0.001  0.183  0.000  0.000  0.000  0.000  0.000  0.451
 
band   6 # energy  121.04031882 # occ.  0.00000000
 
ion      s     py     pz     px    dxy    dyz    dz2    dxz    dx2    tot
  1  0.102  0.526  0.048  0.318  0.000  0.000  0.000  0.000  0.000  0.994
 
band   7 # energy  135.22345646 # occ.  0.00000000
 
ion      s     py     pz     px    dxy    dyz    dz2    dxz    dx2    tot
  1  0.013  0.521  0.095  0.248  0.000  0.000  0.000  0.000  0.000  0.876
 
band   8 # energy  135.09362792 # occ.  0.00000000
 
ion      s     py     pz     px    dxy    dyz    dz2    dxz    dx2    tot
  1  0.076  0.329  0.090  0.033  0.000  0.000  0.000  0.000  0.000  0.529
 

 k-point   13 :    0.10000000 0.05000000 0.00000000     weight = 0.00300000

band   1 # energy  -12.72298267 # occ.  2.00000000
 
ion      s     py     pz     px    dxy    dyz    dz2    dxz    dx2    tot
  1  0.410  0.001  0.000  0.003  0.000  0.000  0.000  0.000  0.000  0.414
 
band   2 # energy   44.31335789 # occ.  0.00000000
 
ion      s     py     pz     px    dxy    dyz    dz2    dxz    dx2    tot
  1  0.309  0.006  0.000  0.161  0.000  0.000  0.000  0.000  0.000  0.476
 
band   3 # energy   53.62412387 # occ.  0.00000000
 
ion      s     py     pz     px    dxy    dyz    dz2    dxz    dx2    tot
  1  0.080  0.209  0.000  0.157  0.000  0.000  0.000  0.000  0.000  0.446
 
band   4 # energy   60.72345410 # occ.  0.00000000
 
ion      s     py     pz     px    dxy    dyz    dz2    dxz    dx2    tot
  1  0.073  0.222  0.000  0.058  0.000  0.000  0.000  0.000  0.000  0.353
 
band   5 # energy   72.86004136 # occ.  0.00000000
 
ion      s     py     pz     px    dxy    dyz    dz2    dxz    dx2    tot
  1  0.042  0.154  0.004  0.283  0.000  0.000  0.000  0.000  0.000  0.482
 
band   6 # energy  116.54779312 # occ.  0.00000000
 
ion      s     py     pz     px    dxy    dyz    dz2    dxz    dx2    tot
  1  0.031  0.454  0.414  0.278  0.000  0.000  0.000  0.000  0.000  1.177
 
band   7 # energy  121.50023462 # occ.  0.00000000
 
ion      s     py     pz     px    dxy    dyz    dz2    dxz    dx2    tot
  1  0.048  0.397  0.187  0.046  0.000  0.000  0.000  0.000  0.000  0.678
 
band   8 # energy  138.85017101 # occ.  0.00000000
 
ion      s     py     pz     px    dxy    dyz    dz2    dxz    dx2    tot
  1  0.036  0.245  0.149  0.108  0.000  0.000  0.000  0.000  0.000  0.538
 

 k-point   14 :    0.15000000 0.05000000 0.00000000     weight = 0.00300000

band   1 # energy  -11.84798455 # occ.  2.00000000
 
ion      s     py     pz     px    dxy    dyz    dz2    dxz    dx2    tot
  1  0.409  0.001  0.000  0.004  0.000  0.000  0.000  0.000  0.000  0.414
 
band   2 # energy   39.00867558 # occ.  0.00000000
 
ion      s     py     pz     px    dxy    dyz    dz2    dxz    dx2    tot
  1  0.228  0.000  0.000  0.223  0.000  0.000  0.000  0.000  0.000  0.451
 
band   3 # energy   53.69031351 # occ.  0.00000000
 
ion      s     py     pz     px    dxy    dyz    dz2    dxz    dx2    tot
  1  0.153  0.202  0.000  0.096  0.000  0.000  0.000  0.000  0.000  0.452
 
band   4 # energy   61.56020246 # occ.  0.00000000
 
ion      s     py     pz     px    dxy    dyz    dz2    dxz    dx2    tot
  1  0.076  0.238  0.000  0.035  0.000  0.000  0.000  0.000  0.000  0.349
 
band   5 # energy   69.80910784 # occ.  0.00000000
 
ion      s     py     pz     px    dxy    dyz    dz2    dxz    dx2    tot
  1  0.022  0.343  0.116  0.038  0.000  0.000  0.000  0.000  0.000  0.519
 
band   6 # energy   93.81533296 # occ.  0.00000000
 
ion      s     py     pz     px    dxy    dyz    dz2    dxz    dx2    tot
  1  0.104  0.225  0.058  0.003  0.000  0.000  0.000  0.000  0.000  0.390
 
band   7 # energy  117.06338603 # occ.  0.00000000
 
ion      s     py     pz     px    dxy    dyz    dz2    dxz    dx2    tot
  1  0.013  0.090  0.035  0.176  0.000  0.000  0.000  0.000  0.000  0.314
 
band   8 # energy  131.11925601 # occ.  0.00000000
 
ion      s     py     pz     px    dxy    dyz    dz2    dxz    dx2    tot
  1  0.060  0.492  0.033  0.144  0.000  0.000  0.000  0.000  0.000  0.729
 

 k-point   15 :    0.20000000 0.05000000 0.00000000     weight = 0.00300000

band   1 # energy  -10.63005075 # occ.  2.00000000
 
ion      s     py     pz     px    dxy    dyz    dz2    dxz    dx2    tot
  1  0.409  0.001  0.000  0.007  0.000  0.000  0.000  0.000  0.000  0.417
 
band   2 # energy   33.46750110 # occ.  0.00000000
 
ion      s     py     pz     px    dxy    dyz    dz2    dxz    dx2    tot
  1  0.193  0.000  0.000  0.226  0.000  0.000  0.000  0.000  0.000  0.420
 
band   3 # energy   54.58733281 # occ.  0.00000000
 
ion      s     py     pz     px    dxy    dyz    dz2    dxz    dx2    tot
  1  0.187  0.203  0.000  0.078  0.000  0.000  0.000  0.000  0.000  0.468
 
band   4 # energy   62.77381490 # occ.  0.00000000
 
ion      s     py     pz     px    dxy    dyz    dz2    dxz    dx2    tot
  1  0.077  0.252  0.000  0.028  0.000  0.000  0.000  0.000  0.000  0.356
 
band   5 # energy   96.92540898 # occ.  0.00000000
 
ion      s     py     pz     px    dxy    dyz    dz2    dxz    dx2    tot
  1  0.060  0.024  0.155  0.186  0.000  0.000  0.000  0.000  0.000  0.425
 
band   6 # energy  112.47822565 # occ.  0.00000000
 
ion      s     py     pz     px    dxy    dyz    dz2    dxz    dx2    tot
  1  0.009  0.973  0.014  0.063  0.000  0.000  0.000  0.000  0.000  1.059
 
band   7 # energy  126.16431281 # occ.  0.00000000
 
ion      s     py     pz     px    dxy    dyz    dz2    dxz    dx2    tot
  1  0.075  0.361  0.016  0.009  0.000  0.000  0.000  0.000  0.000  0.462
 
band   8 # energy  168.48127532 # occ.  0.00000000
 
ion      s     py     pz     px    dxy    dyz    dz2    dxz    dx2    tot
  1  0.064  0.027  0.023  0.387  0.000  0.000  0.000  0.000  0.000  0.501
 

 k-point   16 :    0.25000000 0.05000000 0.00000000     weight = 0.00300000

band   1 # energy   -9.07323546 # occ.  2.00000000
 
ion      s     py     pz     px    dxy    dyz    dz2    dxz    dx2    tot
  1  0.410  0.001  0.000  0.012  0.000  0.000  0.000  0.000  0.000  0.423
 
band   2 # energy   28.12396445 # occ.  0.00000000
 
ion      s     py     pz     px    dxy    dyz    dz2    dxz    dx2    tot
  1  0.176  0.000  0.000  0.210  0.000  0.000  0.000  0.000  0.000  0.386
 
band   3 # energy   55.96573804 # occ.  0.00000000
 
ion      s     py     pz     px    dxy    dyz    dz2    dxz    dx2    tot
  1  0.207  0.201  0.000  0.074  0.000  0.000  0.000  0.000  0.000  0.483
 
band   4 # energy   64.34006461 # occ.  0.00000000
 
ion      s     py     pz     px    dxy    dyz    dz2    dxz    dx2    tot
  1  0.077  0.264  0.000  0.024  0.000  0.000  0.000  0.000  0.000  0.365
 
band   5 # energy  101.98850817 # occ.  0.00000000
 
ion      s     py     pz     px    dxy    dyz    dz2    dxz    dx2    tot
  1  0.046  0.027  0.030  0.398  0.000  0.000  0.000  0.000  0.000  0.501
 
band   6 # energy  112.95117795 # occ.  0.00000000
 
ion      s     py     pz     px    dxy    dyz    dz2    dxz    dx2    tot
  1  0.027  0.581  0.038  0.245  0.000  0.000  0.000  0.000  0.000  0.891
 
band   7 # energy  146.44091746 # occ.  0.00000000
 
ion      s     py     pz     px    dxy    dyz    dz2    dxz    dx2    tot
  1  0.103  0.317  0.012  0.048  0.000  0.000  0.000  0.000  0.000  0.479
 
band   8 # energy  162.46873773 # occ.  0.00000000
 
ion      s     py     pz     px    dxy    dyz    dz2    dxz    dx2    tot
  1  0.026  0.822  0.057  0.159  0.000  0.000  0.000  0.000  0.000  1.064
 

 k-point   17 :    0.30000000 0.05000000 0.00000000     weight = 0.00300000

band   1 # energy   -7.19772700 # occ.  2.00000000
 
ion      s     py     pz     px    dxy    dyz    dz2    dxz    dx2    tot
  1  0.415  0.001  0.000  0.016  0.000  0.000  0.000  0.000  0.000  0.432
 
band   2 # energy   23.09795593 # occ.  0.00000000
 
ion      s     py     pz     px    dxy    dyz    dz2    dxz    dx2    tot
  1  0.163  0.000  0.000  0.191  0.000  0.000  0.000  0.000  0.000  0.354
 
band   3 # energy   57.69388322 # occ.  0.00000000
 
ion      s     py     pz     px    dxy    dyz    dz2    dxz    dx2    tot
  1  0.225  0.201  0.000  0.074  0.000  0.000  0.000  0.000  0.000  0.499
 
band   4 # energy   66.23790235 # occ.  0.00000000
 
ion      s     py     pz     px    dxy    dyz    dz2    dxz    dx2    tot
  1  0.077  0.280  0.000  0.021  0.000  0.000  0.000  0.000  0.000  0.378
 
band   5 # energy   98.00952256 # occ.  0.00000000
 
ion      s     py     pz     px    dxy    dyz    dz2    dxz    dx2    tot
  1  0.003  0.023  0.276  0.135  0.000  0.000  0.000  0.000  0.000  0.438
 
band   6 # energy  129.08704179 # occ.  0.00000000
 
ion      s     py     pz     px    dxy    dyz    dz2    dxz    dx2    tot
  1  0.149  0.032  0.033  0.077  0.000  0.000  0.000  0.000  0.000  0.290
 
band   7 # energy  148.46483691 # occ.  0.00000000
 
ion      s     py     pz     px    dxy    dyz    dz2    dxz    dx2    tot
  1  0.012  0.625  0.536  0.001  0.000  0.000  0.000  0.000  0.000  1.174
 
band   8 # energy  176.24469750 # occ.  0.00000000
 
ion      s     py     pz     px    dxy    dyz    dz2    dxz    dx2    tot
  1  0.056  0.025  0.027  0.018  0.000  0.000  0.000  0.000  0.000  0.127
 

 k-point   18 :    0.35000000 0.05000000 0.00000000     weight = 0.00300000

band   1 # energy   -5.04505943 # occ.  2.00000000
 
ion      s     py     pz     px    dxy    dyz    dz2    dxz    dx2    tot
  1  0.428  0.001  0.000  0.020  0.000  0.000  0.000  0.000  0.000  0.448
 
band   2 # energy   18.46577418 # occ.  0.00000000
 
ion      s     py     pz     px    dxy    dyz    dz2    dxz    dx2    tot
  1  0.146  0.000  0.000  0.177  0.000  0.000  0.000  0.000  0.000  0.323
 
band   3 # energy   59.67052764 # occ.  0.00000000
 
ion      s     py     pz     px    dxy    dyz    dz2    dxz    dx2    tot
  1  0.246  0.201  0.000  0.070  0.000  0.000  0.000  0.000  0.000  0.517
 
band   4 # energy   68.42374870 # occ.  0.00000000
 
ion      s     py     pz     px    dxy    dyz    dz2    dxz    dx2    tot
  1  0.078  0.303  0.000  0.014  0.000  0.000  0.000  0.000  0.000  0.395
 
band   5 # energy   98.30715895 # occ.  0.00000000
 