    1    1    1    1
  0.2957216E+01  0.1435361E-09  0.1435361E-09  0.1435361E-09  0.5000000E-15
  1.000000000000000E-004
  CAR 
 jump2                                   
    1   20    8
 
  0.5000000E+00  0.0000000E+00  0.0000000E+00  0.5000000E-01
   1        0.431607
   2        9.416477
   3       66.492414
   4       77.341897
   5       81.796044
   6      144.517851
   7      153.256066
   8      153.516248
 
  0.4736842E+00  0.2631579E-01  0.0000000E+00  0.5000000E-01
   1        0.140354
   2        9.903887
   3       65.679552
   4       75.891117
   5       83.182706
   6      147.380979
   7      149.791625
   8      230.306140
 
  0.4473684E+00  0.5263158E-01  0.0000000E+00  0.5000000E-01
   1       -0.573314
   2       11.219811
   3       63.298970
   4       73.222513
   5      138.223803
   6      146.567653
   7      148.448002
   8      221.013609
 
  0.4210526E+00  0.7894737E-01  0.0000000E+00  0.5000000E-01
   1       -1.465015
   2       13.093033
   3       59.711878
   4       71.129697
   5       86.207449
   6      138.669708
   7      140.799794
   8      148.423590
 
  0.3947368E+00  0.1052632E+00  0.0000000E+00  0.5000000E-01
   1       -2.360412
   2       15.354180
   3       55.562007
   4       70.069987
   5       87.756812
   6       90.810215
   7      136.360852
   8      181.543121
 
  0.3684211E+00  0.1315789E+00  0.0000000E+00  0.5000000E-01
   1       -3.167728
   2       17.910342
   3       51.257889
   4       69.109741
   5       92.556854
   6      116.223821
   7      125.904289
   8      146.847453
 
  0.3421053E+00  0.1578947E+00  0.0000000E+00  0.5000000E-01
   1       -3.836080
   2       20.721830
   3       47.000161
   4       67.908431
   5       71.865930
   6       95.574794
   7      118.662082
   8      164.069566
 
  0.3157895E+00  0.1842105E+00  0.0000000E+00  0.5000000E-01
   1       -4.359767
   2       23.711585
   3       42.855573
   4       67.556004
   5       95.413965
   6      114.633110
   7      124.167089
   8      183.518488
 
  0.2894737E+00  0.2105263E+00  0.0000000E+00  0.5000000E-01
   1       -4.711769
   2       26.809284
   3       38.996026
   4       67.999353
   5       70.833770
   6      105.301312
   7      110.458576
   8      144.706849
 
  0.2631579E+00  0.2368421E+00  0.0000000E+00  0.5000000E-01
   1       -4.887290
   2       29.607182
   3       35.825173
   4       66.706528
   5       70.658518
   6      103.260523
   7      137.017726
   8      173.555954
 
  0.2368421E+00  0.2631579E+00  0.0000000E+00  0.5000000E-01
   1       -4.887290
   2       29.607182
   3       35.825173
   4       66.692981
   5       70.881929
   6      105.966316
   7      107.344883
   8      141.934453
 
  0.2105263E+00  0.2894737E+00  0.0000000E+00  0.5000000E-01
   1       -4.711769
   2       26.809284
   3       38.996026
   4       66.888766
   5       98.535232
   6      103.539543
   7      134.501970
   8      178.059041
 
  0.1842105E+00  0.3157895E+00  0.0000000E+00  0.5000000E-01
   1       -4.359767
   2       23.711585
   3       42.855572
   4       67.284948
   5       98.472614
   6      103.461938
   7      119.437488
   8      184.854541
 
  0.1578947E+00  0.3421053E+00  0.0000000E+00  0.5000000E-01
   1       -3.836080
   2       20.721830
   3       47.000146
   4       67.885988
   5       94.693153
   6      118.890410
   7      182.028499
   8      190.760573
 
  0.1315789E+00  0.3684211E+00  0.0000000E+00  0.5000000E-01
   1       -3.167728
   2       17.910342
   3       51.257770
   4       68.663531
   5       73.269936
   6       91.794954
   7      119.865342
   8      150.419400
 
  0.1052632E+00  0.3947368E+00  0.0000000E+00  0.5000000E-01
   1       -2.360412
   2       15.354180
   3       55.562031
   4       69.745353
   5       74.364963
   6       91.465064
   7      131.785064
   8      183.943623
 
  0.7894737E-01  0.4210526E+00  0.0000000E+00  0.5000000E-01
   1       -1.465015
   2       13.093033
   3       59.711313
   4       71.130825
   5       88.032811
   6      135.105473
   7      154.838157
   8      156.691836
 
  0.5263158E-01  0.4473684E+00  0.0000000E+00  0.5000000E-01
   1       -0.573314
   2       11.219811
   3       63.295784
   4       73.058270
   5       91.155292
   6      147.665749
   7      153.279190
   8      157.907114
 
  0.2631579E-01  0.4736842E+00  0.0000000E+00  0.5000000E-01
   1        0.140354
   2        9.903887
   3       65.678518
   4       75.614954
   5       81.597756
   6      146.928006
   7      151.291384
   8      159.146491
 
  0.0000000E+00  0.5000000E+00  0.0000000E+00  0.5000000E-01
   1        0.431607
   2        9.416477
   3       66.500830
   4       82.596203
   5       82.887056
   6      145.379385
   7      152.406386
   8      153.327147
