 vasp.5.2.12 11Nov11 complex                                                    
  
 executed on             LinuxIFC date 2018.01.16  21:15:52
 running on   16 nodes
 distr:  one band on    4 nodes,    4 groups


--------------------------------------------------------------------------------------------------------


 INCAR:
 POTCAR:   PAW_PBE H 15Jun2001                    
 POTCAR:   PAW_PBE H 15Jun2001                    
   VRHFIN =H: ultrasoft test                                                    
   LEXCH  = PE                                                                  
   EATOM  =    12.4884 eV,     .9179 Ry                                         
                                                                                
   TITEL  = PAW_PBE H 15Jun2001                                                 
   LULTRA =        F    use ultrasoft PP ?                                      
   IUNSCR =        0    unscreen: 0-lin 1-nonlin 2-no                           
   RPACOR =     .000    partial core radius                                     
   POMASS =    1.000; ZVAL   =    1.000    mass and valenz                      
   RCORE  =    1.100    outmost cutoff radius                                   
   RWIGS  =     .700; RWIGS  =     .370    wigner-seitz radius (au A)           
   ENMAX  =  250.000; ENMIN  =  200.000 eV                                      
   RCLOC  =     .701    cutoff for local pot                                    
   LCOR   =        T    correct aug charges                                     
   LPAW   =        T    paw PP                                                  
   EAUG   =  400.000                                                            
   RMAX   =    2.174    core radius for proj-oper                               
   RAUG   =    1.200    factor for augmentation sphere                          
   RDEP   =    1.112    radius for radial grids                                 
   QCUT   =   -5.749; QGAM   =   11.498    optimization parameters              
                                                                                
   Description                                                                  
     l     E      TYP  RCUT    TYP  RCUT                                        
     0   .000     23  1.100                                                     
     0   .500     23  1.100                                                     
     1  -.300     23  1.100                                                     
  local pseudopotential read in
  atomic valenz-charges read in
  non local Contribution for L=           0  read in
    real space projection operators read in
  non local Contribution for L=           0  read in
    real space projection operators read in
  non local Contribution for L=           1  read in
    real space projection operators read in
    PAW grid and wavefunctions read in
 
   number of l-projection  operators is LMAX  =           3
   number of lm-projection operators is LMMAX =           5
 

 ----------------------------------------------------------------------------- 
|                                                                             |
|  ADVICE TO THIS USER RUNNING 'VASP/VAMP'   (HEAR YOUR MASTER'S VOICE ...):  |
|                                                                             |
|      You have a (more or less) 'small supercell' and for smaller cells      |
|      it is recommended  to use the reciprocal-space projection scheme!      |
|      The real space optimization is not  efficient for small cells and it   |
|      is also less accurate ...                                              |
|      Therefore set LREAL=.FALSE. in the  INCAR file                         |
|                                                                             |
 ----------------------------------------------------------------------------- 

 Optimization of the real space projectors (new method)

 maximal supplied QI-value         = 34.20
 optimisation between [QCUT,QGAM] = [  9.24, 18.47] = [ 23.88, 95.53] Ry 
 Optimized for a Real-space Cutoff    1.53 Angstroem

   l    n(q)    QCUT    max X(q) W(low)/X(q) W(high)/X(q)  e(spline) 
   0      8     9.235     4.436    0.24E-04    0.90E-05    0.12E-06
   0      8     9.235    16.131    0.15E-03    0.21E-03    0.56E-06
   1      8     9.235     4.623    0.42E-03    0.10E-02    0.60E-06
 PAW_PBE H 15Jun2001                    :
 energy of atom  1       EATOM=  -12.4884
 kinetic energy error for atom=    0.0294 (will be added to EATOM!!)
 
 
 POSCAR: Cs2 Na1 Sb1 Cl6                         
  positions in direct lattice
  No initial velocities read in
 exchange correlation table for  LEXCH =        8
   RHO(1)=    0.500       N(1)  =     2000
   RHO(2)=  100.500       N(2)  =     4000
 


--------------------------------------------------------------------------------------------------------


 ion  position               nearest neighbor table
   1  0.000  0.000  0.000-
 
  LATTYP: Found a simple cubic cell.
 ALAT       =     1.4353605501
  
  Lattice vectors:
  
 A1 = (   1.4353605501,   0.0000000000,   0.0000000000)
 A2 = (   0.0000000000,   1.4353605501,   0.0000000000)
 A3 = (   0.0000000000,   0.0000000000,   1.4353605501)
 Subroutine PRICEL returns:
 Original cell was already a primitive cell.
 

Analysis of symmetry for initial positions (statically):

 Routine SETGRP: Setting up the symmetry group for a 
 simple cubic supercell.


 Subroutine GETGRP returns: Found 48 space group operations
 (whereof 48 operations were pure point group operations)
 out of a pool of 48 trial point group operations.


The static configuration has the point symmetry O_h .

Analysis of symmetry for dynamics (positions and initial velocities):

 Subroutine DYNSYM returns: Found 48 space group operations
 (whereof 48 operations were pure point group operations)
 out of a pool of 48 trial space group operations
 (whereof 48 operations were pure point group operations)
 and found also     1 'primitive' translations


The dynamic configuration has the point symmetry O_h .
 
 
 KPOINTS: band                                    
  interpolating k-points between supplied coordinates
  k-points in reciprocal lattice


--------------------------------------------------------------------------------------------------------




 Dimension of arrays:
   k-points           NKPTS =     20   k-points in BZ     NKDIM =     20   number of bands    NBANDS=      8
   number of dos      NEDOS =   2001   number of ions     NIONS =      1
   non local maximal  LDIM  =      3   non local SUM 2l+1 LMDIM =      5
   total plane-waves  NPLWV =    216
   max r-space proj   IRMAX =   1149   max aug-charges    IRDMAX=   3039
   dimension x,y,z NGX =     6 NGY =    6 NGZ =    6
   dimension x,y,z NGXF=    12 NGYF=   12 NGZF=   12
   support grid    NGXF=    24 NGYF=   24 NGZF=   24
   ions per type =               1
 NGX,Y,Z   is equivalent  to a cutoff of   6.95,  6.95,  6.95 a.u.
 NGXF,Y,Z  is equivalent  to a cutoff of  13.90, 13.90, 13.90 a.u.


 I would recommend the setting:
   dimension x,y,z NGX =     6 NGY =    6 NGZ =    6
 SYSTEM =  jump2                                   
 POSCAR =  Cs2 Na1 Sb1 Cl6                         

 Startparameter for this run:
   NWRITE =      2    write-flag & timer
   PREC   = normal    normal or accurate (medium, high low for compatibility)
   ISTART =      1    job   : 0-new  1-cont  2-samecut
   ICHARG =     11    charge: 1-file 2-atom 10-const
   ISPIN  =      1    spin polarized calculation?
   LNONCOLLINEAR =      F non collinear calculations
   LSORBIT =      F    spin-orbit coupling
   INIWAV =      1    electr: 0-lowe 1-rand  2-diag
   LASPH  =      F    aspherical Exc in radial PAW
   METAGGA=      F    non-selfconsistent MetaGGA calc.

 Electronic Relaxation 1
   ENCUT  =  325.0 eV  23.89 Ry    4.89 a.u.   2.11  2.11  2.11*2*pi/ulx,y,z
   ENINI  =  325.0     initial cutoff
   ENAUG  =  400.0 eV  augmentation charge cutoff
   NELM   =    100;   NELMIN=  2; NELMDL=  0     # of ELM steps 
   EDIFF  = 0.1E-03   stopping-criterion for ELM
   LREAL  =      T    real-space projection
   NLSPLINE    = F    spline interpolate recip. space projectors
   LCOMPAT=      F    compatible to vasp.4.4
   GGA_COMPAT  = T    GGA compatible to vasp.4.4-vasp.4.6
   LMAXPAW     = -100 max onsite density
   LMAXMIX     =    2 max onsite mixed and CHGCAR
   VOSKOWN=      0    Vosko Wilk Nusair interpolation
   ROPT   =   -0.00050
 Ionic relaxation
   EDIFFG = -.1E-01   stopping-criterion for IOM
   NSW    =      0    number of steps for IOM
   NBLOCK =      1;   KBLOCK =      1    inner block; outer block 
   IBRION =     -1    ionic relax: 0-MD 1-quasi-New 2-CG
   NFREE  =      0    steps in history (QN), initial steepest desc. (CG)
   ISIF   =      2    stress and relaxation
   IWAVPR =     10    prediction:  0-non 1-charg 2-wave 3-comb
   ISYM   =      2    0-nonsym 1-usesym 2-fastsym
   LCORR  =      T    Harris-Foulkes like correction to forces

   POTIM  = 0.5000    time-step for ionic-motion
   TEIN   =    0.0    initial temperature
   TEBEG  =    0.0;   TEEND  =   0.0 temperature during run
   SMASS  =  -3.00    Nose mass-parameter (am)
   estimated Nose-frequenzy (Omega)   =  0.10E-29 period in steps =****** mass=  -0.471E-28a.u.
   SCALEE = 1.0000    scale energy and forces
   NPACO  =    256;   APACO  = 16.0  distance and # of slots for P.C.
   PSTRESS=    0.0 pullay stress

  Mass of Ions in am
   POMASS =   1.00
  Ionic Valenz
   ZVAL   =   1.00
  Atomic Wigner-Seitz radii
   RWIGS  =  -1.00
  virtual crystal weights 
   VCA    =   1.00
   NELECT =       1.0000    total number of electrons
   NUPDOWN=      -1.0000    fix difference up-down

 DOS related values:
   EMIN   =  10.00;   EMAX   =-10.00  energy-range for DOS
   EFERMI =   0.00
   ISMEAR =     0;   SIGMA  =   0.10  broadening in eV -4-tet -1-fermi 0-gaus

 Electronic relaxation 2 (details)
   IALGO  =     48    algorithm
   LDIAG  =      T    sub-space diagonalisation (order eigenvalues)
   LSUBROT=      T    optimize rotation matrix (better conditioning)
   TURBO    =      0    0=normal 1=particle mesh
   IRESTART =      0    0=no restart 2=restart with 2 vectors
   NREBOOT  =      0    no. of reboots
   NMIN     =      0    reboot dimension
   EREF     =   0.00    reference energy to select bands
   IMIX   =      4    mixing-type and parameters
     AMIX     =   0.40;   BMIX     =  1.00
     AMIX_MAG =   1.60;   BMIX_MAG =  1.00
     AMIN     =   0.01
     WC   =   100.;   INIMIX=   1;  MIXPRE=   1

 Intra band minimization:
   WEIMIN = 0.0000     energy-eigenvalue tresh-hold
   EBREAK =  0.31E-05  absolut break condition
   DEPER  =   0.30     relativ break condition  

   TIME   =   0.40     timestep for ELM

  volume/ion in A,a.u.               =       2.96        19.96
  Fermi-wavevector in a.u.,A,eV,Ry     =   1.140549  2.155324 17.699156  1.300851
  Thomas-Fermi vector in A             =   2.277251
 
 Write flags
   LWAVE  =      T    write WAVECAR
   LCHARG =      F    write CHGCAR
   LVTOT  =      F    write LOCPOT, total local potential
   LVHAR  =      F    write LOCPOT, Hartree potential only
   LELF   =      F    write electronic localiz. function (ELF)
   LORBIT =     11    0 simple, 1 ext, 2 COOP (PROOUT)


 Dipole corrections
   LMONO  =      F    monopole corrections only (constant potential shift)
   LDIPOL =      F    correct potential (dipole corrections)
   IDIPOL =      0    1-x, 2-y, 3-z, 4-all directions 
   EPSILON=  1.0000000 bulk dielectric constant

 Exchange correlation treatment:
   GGA     =    --    GGA type
   LEXCH   =     8    internal setting for exchange type
   VOSKOWN=      0    Vosko Wilk Nusair interpolation
   LHFCALC =     F    Hartree Fock is set to
   LHFONE  =     F    Hartree Fock one center treatment
   AEXX    =    0.0000 exact exchange contribution

 Linear response parameters
   LEPSILON=     F    determine dielectric tensor
   LRPA    =     F    only Hartree local field effects (RPA)
   LNABLA  =     F    use nabla operator in PAW spheres
   LVEL    =     F    velocity operator in full k-point grid
   LINTERFAST=   F  fast interpolation
   KINTER  =     0    interpolate to denser k-point grid
   CSHIFT  =0.1000    complex shift for real part using Kramers Kronig
   OMEGAMAX=  -1.0    maximum frequency
   RTIME   =    0.100 relaxation time in fs

 Orbital magnetization related:
   ORBITALMAG=     F  switch on orbital magnetization
   LCHIMAG   =     F  perturbation theory with respect to B field
   DQ        =  0.001000  dq finite difference perturbation B field



--------------------------------------------------------------------------------------------------------


 Static calculation
 charge density and potential remain constant during run
 non-spin polarized calculation
 RMM-DIIS sequential band-by-band
 perform sub-space diagonalisation
    before iterative eigenvector-optimisation
 no mixing
 using additional bands            7
 real space projection scheme for non local part
 calculate Harris-corrections to forces 
   (improved forces if not selfconsistent)
 use gradient corrections 
 WARNING: stress and forces are not correct
  (second derivative of E(xc) not defined)
 use of overlap-Matrix (Vanderbilt PP)
 Gauss-broadening in eV      SIGMA  =   0.10


--------------------------------------------------------------------------------------------------------


  energy-cutoff  :      325.00
  volume of cell :        2.96
      direct lattice vectors                 reciprocal lattice vectors
     1.435360550  0.000000000  0.000000000     0.696689065  0.000000000  0.000000000
     0.000000000  1.435360550  0.000000000     0.000000000  0.696689065  0.000000000
     0.000000000  0.000000000  1.435360550     0.000000000  0.000000000  0.696689065

  length of vectors
     1.435360550  1.435360550  1.435360550     0.696689065  0.696689065  0.696689065


 
 old parameters found on file WAVECAR:
  energy-cutoff  :      325.00
  volume of cell :        2.96
      direct lattice vectors                 reciprocal lattice vectors
     1.435360550  0.000000000  0.000000000     0.696689065  0.000000000  0.000000000
     0.000000000  1.435360550  0.000000000     0.000000000  0.696689065  0.000000000
     0.000000000  0.000000000  1.435360550     0.000000000  0.000000000  0.696689065

  length of vectors

 
 k-points in units of 2pi/SCALE and weight: band                                    
   0.34834453  0.00000000  0.00000000       0.050
   0.33001061  0.01833392  0.00000000       0.050
   0.31167669  0.03666785  0.00000000       0.050
   0.29334276  0.05500177  0.00000000       0.050
   0.27500884  0.07333569  0.00000000       0.050
   0.25667492  0.09166961  0.00000000       0.050
   0.23834100  0.11000354  0.00000000       0.050
   0.22000707  0.12833746  0.00000000       0.050
   0.20167315  0.14667138  0.00000000       0.050
   0.18333923  0.16500530  0.00000000       0.050
   0.16500530  0.18333923  0.00000000       0.050
   0.14667138  0.20167315  0.00000000       0.050
   0.12833746  0.22000707  0.00000000       0.050
   0.11000354  0.23834100  0.00000000       0.050
   0.09166961  0.25667492  0.00000000       0.050
   0.07333569  0.27500884  0.00000000       0.050
   0.05500177  0.29334276  0.00000000       0.050
   0.03666785  0.31167669  0.00000000       0.050
   0.01833392  0.33001061  0.00000000       0.050
   0.00000000  0.34834453  0.00000000       0.050
 
 k-points in reciprocal lattice and weights: band                                    
   0.50000000  0.00000000  0.00000000       0.050
   0.47368421  0.02631579  0.00000000       0.050
   0.44736842  0.05263158  0.00000000       0.050
   0.42105263  0.07894737  0.00000000       0.050
   0.39473684  0.10526316  0.00000000       0.050
   0.36842105  0.13157895  0.00000000       0.050
   0.34210526  0.15789474  0.00000000       0.050
   0.31578947  0.18421053  0.00000000       0.050
   0.28947368  0.21052632  0.00000000       0.050
   0.26315789  0.23684211  0.00000000       0.050
   0.23684211  0.26315789  0.00000000       0.050
   0.21052632  0.28947368  0.00000000       0.050
   0.18421053  0.31578947  0.00000000       0.050
   0.15789474  0.34210526  0.00000000       0.050
   0.13157895  0.36842105  0.00000000       0.050
   0.10526316  0.39473684  0.00000000       0.050
   0.07894737  0.42105263  0.00000000       0.050
   0.05263158  0.44736842  0.00000000       0.050
   0.02631579  0.47368421  0.00000000       0.050
   0.00000000  0.50000000  0.00000000       0.050
 
 position of ions in fractional coordinates (direct lattice) 
   0.00000000  0.00000000  0.00000000
 
 position of ions in cartesian coordinates  (Angst):
   0.00000000  0.00000000  0.00000000
 


--------------------------------------------------------------------------------------------------------


 k-point  1 :  0.50000.00000.0000  plane waves:      44
 k-point  2 :  0.47370.02630.0000  plane waves:      44
 k-point  3 :  0.44740.05260.0000  plane waves:      41
 k-point  4 :  0.42110.07890.0000  plane waves:      40
 k-point  5 :  0.39470.10530.0000  plane waves:      40
 k-point  6 :  0.36840.13160.0000  plane waves:      40
 k-point  7 :  0.34210.15790.0000  plane waves:      36
 k-point  8 :  0.31580.18420.0000  plane waves:      38
 k-point  9 :  0.28950.21050.0000  plane waves:      38
 k-point 10 :  0.26320.23680.0000  plane waves:      37
 k-point 11 :  0.23680.26320.0000  plane waves:      37
 k-point 12 :  0.21050.28950.0000  plane waves:      38
 k-point 13 :  0.18420.31580.0000  plane waves:      38
 k-point 14 :  0.15790.34210.0000  plane waves:      36
 k-point 15 :  0.13160.36840.0000  plane waves:      40
 k-point 16 :  0.10530.39470.0000  plane waves:      40
 k-point 17 :  0.07890.42110.0000  plane waves:      40
 k-point 18 :  0.05260.44740.0000  plane waves:      41
 k-point 19 :  0.02630.47370.0000  plane waves:      44
 k-point 20 :  0.00000.50000.0000  plane waves:      44

 maximum and minimum number of plane-waves per node :        14        6

 maximum number of plane-waves:        44
 maximum index in each direction: 
   IXMAX=    2   IYMAX=    2   IZMAX=    2
   IXMIN=   -2   IYMIN=   -2   IZMIN=   -2

 WARNING: aliasing errors must be expected set NGX to  10 to avoid them
 WARNING: aliasing errors must be expected set NGY to  10 to avoid them
 WARNING: aliasing errors must be expected set NGZ to  10 to avoid them
 aliasing errors are usually negligible using standard VASP settings
 and one can safely disregard these warnings

 real space projection operators:
  total allocation   :         40.82 KBytes
  max/ min on nodes  :         13.16          7.11


 parallel 3D FFT for wavefunctions:
    minimum data exchange during FFTs selected (reduces bandwidth)
 parallel 3D FFT for charge:
    minimum data exchange during FFTs selected (reduces bandwidth)


 total amount of memory used by VASP on root node    30079. kBytes
========================================================================

   base      :      30000. kBytes
   nonlr-proj:         34. kBytes
   fftplans  :         22. kBytes
   grid      :         10. kBytes
   one-center:          1. kBytes
   wavefun   :         12. kBytes
 
 initial charge density was supplied:
 number of electron       1.0000000 magnetization 
 keeping initial charge density in first step


--------------------------------------------------------------------------------------------------------


 Maximum index for non-local projection operator          337
 Maximum index for augmentation-charges          278 (set IRDMAX)


--------------------------------------------------------------------------------------------------------


 First call to EWALD:  gamma=   1.235
 Maximum number of real-space cells 3x 3x 3
 Maximum number of reciprocal cells 3x 3x 3

    FEWALD:  cpu time    0.00: real time    0.00


----------------------------------------- Iteration    1(   1)  ---------------------------------------


    POTLOK:  cpu time    0.00: real time    0.00
    SETDIJ:  cpu time    0.00: real time    0.00
    EDDIAG:  cpu time    0.02: real time    0.04
  RMM-DIIS:  cpu time    0.02: real time    0.05
    ORTHCH:  cpu time    0.00: real time    0.01
       DOS:  cpu time    0.00: real time    0.00
    --------------------------------------------
      LOOP:  cpu time    0.05: real time    0.10

 eigenvalue-minimisations  :   505
 total energy-change (2. order) :-0.2753664E+01  (-0.6175608E+00)
 number of electron       1.0000000 magnetization 
 augmentation part        1.0000000 magnetization 

 Free energy of the ion-electron system (eV)
  ---------------------------------------------------
  alpha Z        PSCENC =         0.82381590
  Ewald energy   TEWEN  =       -14.23213143
  -1/2 Hartree   DENC   =        -0.36095373
  -exchange  EXHF       =         0.00000000
  -V(xc)+E(xc)   XCENC  =         2.76127529
  PAW double counting   =         1.82026030       -1.83252046
  entropy T*S    EENTRO =        -0.00000000
  eigenvalues    EBANDS =        -4.19237462
  atomic energy  EATOM  =        12.45896517
  ---------------------------------------------------
  free energy    TOTEN  =        -2.75366359 eV

  energy without entropy =       -2.75366358  energy(sigma->0) =       -2.75366359


--------------------------------------------------------------------------------------------------------




----------------------------------------- Iteration    1(   2)  ---------------------------------------


    EDDIAG:  cpu time    0.02: real time    0.04
  RMM-DIIS:  cpu time    0.02: real time    0.05
    ORTHCH:  cpu time    0.00: real time    0.01
       DOS:  cpu time    0.00: real time    0.00
    --------------------------------------------
      LOOP:  cpu time    0.05: real time    0.09

 eigenvalue-minimisations  :   480
 total energy-change (2. order) :-0.1519826E-03  (-0.1953805E-04)
 number of electron       1.0000000 magnetization 
 augmentation part        1.0000000 magnetization 

 Free energy of the ion-electron system (eV)
  ---------------------------------------------------
  alpha Z        PSCENC =         0.82381590
  Ewald energy   TEWEN  =       -14.23213143
  -1/2 Hartree   DENC   =        -0.36095373
  -exchange  EXHF       =         0.00000000
  -V(xc)+E(xc)   XCENC  =         2.76127529
  PAW double counting   =         1.82026030       -1.83252046
  entropy T*S    EENTRO =        -0.00000000
  eigenvalues    EBANDS =        -4.19252661
  atomic energy  EATOM  =        12.45896517
  ---------------------------------------------------
  free energy    TOTEN  =        -2.75381557 eV

  energy without entropy =       -2.75381557  energy(sigma->0) =       -2.75381557


--------------------------------------------------------------------------------------------------------




----------------------------------------- Iteration    1(   3)  ---------------------------------------


    EDDIAG:  cpu time    0.02: real time    0.04
  RMM-DIIS:  cpu time    0.02: real time    0.05
    ORTHCH:  cpu time    0.00: real time    0.01
       DOS:  cpu time    0.00: real time    0.00
    --------------------------------------------
      LOOP:  cpu time    0.04: real time    0.09

 eigenvalue-minimisations  :   425
 total energy-change (2. order) :-0.4649092E-08  (-0.1344522E-16)
 number of electron       1.0000000 magnetization 
 augmentation part        1.0000000 magnetization 

 Free energy of the ion-electron system (eV)
  ---------------------------------------------------
  alpha Z        PSCENC =         0.82381590
  Ewald energy   TEWEN  =       -14.23213143
  -1/2 Hartree   DENC   =        -0.36095373
  -exchange  EXHF       =         0.00000000
  -V(xc)+E(xc)   XCENC  =         2.76127529
  PAW double counting   =         1.82026030       -1.83252046
  entropy T*S    EENTRO =        -0.00000000
  eigenvalues    EBANDS =        -4.19252661
  atomic energy  EATOM  =        12.45896517
  ---------------------------------------------------
  free energy    TOTEN  =        -2.75381557 eV

  energy without entropy =       -2.75381557  energy(sigma->0) =       -2.75381557


--------------------------------------------------------------------------------------------------------




 average (electrostatic) potential at core
  the test charge radii are     0.5201
  (the norm of the test charge is              1.0002)
       1 -35.0683
 
 
 
 E-fermi :  -2.7641     XC(G=0): -11.0443     alpha+bet : -9.3372


 k-point   1 :       0.5000    0.0000    0.0000
  band No.  band energies     occupation 
      1       0.4316      0.00000
      2       9.4165      0.00000
      3      66.4924      0.00000
      4      77.3419      0.00000
      5      81.7960      0.00000
      6     144.5179      0.00000
      7     153.2561      0.00000
      8     153.5162      0.00000

 k-point   2 :       0.4737    0.0263    0.0000
  band No.  band energies     occupation 
      1       0.1404      0.00000
      2       9.9039      0.00000
      3      65.6796      0.00000
      4      75.8911      0.00000
      5      83.1827      0.00000
      6     147.3810      0.00000
      7     149.7916      0.00000
      8     230.3061      0.00000

 k-point   3 :       0.4474    0.0526    0.0000
  band No.  band energies     occupation 
      1      -0.5733      0.00000
      2      11.2198      0.00000
      3      63.2990      0.00000
      4      73.2225      0.00000
      5     138.2238      0.00000
      6     146.5677      0.00000
      7     148.4480      0.00000
      8     221.0136      0.00000

 k-point   4 :       0.4211    0.0789    0.0000
  band No.  band energies     occupation 
      1      -1.4650      0.00000
      2      13.0930      0.00000
      3      59.7119      0.00000
      4      71.1297      0.00000
      5      86.2074      0.00000
      6     138.6697      0.00000
      7     140.7998      0.00000
      8     148.4236      0.00000

 k-point   5 :       0.3947    0.1053    0.0000
  band No.  band energies     occupation 
      1      -2.3604      0.00000
      2      15.3542      0.00000
      3      55.5620      0.00000
      4      70.0700      0.00000
      5      87.7568      0.00000
      6      90.8102      0.00000
      7     136.3609      0.00000
      8     181.5431      0.00000

 k-point   6 :       0.3684    0.1316    0.0000
  band No.  band energies     occupation 
      1      -3.1677      2.00000
      2      17.9103      0.00000
      3      51.2579      0.00000
      4      69.1097      0.00000
      5      92.5569      0.00000
      6     116.2238      0.00000
      7     125.9043      0.00000
      8     146.8475      0.00000

 k-point   7 :       0.3421    0.1579    0.0000
  band No.  band energies     occupation 
      1      -3.8361      2.00000
      2      20.7218      0.00000
      3      47.0002      0.00000
      4      67.9084      0.00000
      5      71.8659      0.00000
      6      95.5748      0.00000
      7     118.6621      0.00000
      8     164.0696      0.00000

 k-point   8 :       0.3158    0.1842    0.0000
  band No.  band energies     occupation 
      1      -4.3598      2.00000
      2      23.7116      0.00000
      3      42.8556      0.00000
      4      67.5560      0.00000
      5      95.4140      0.00000
      6     114.6331      0.00000
      7     124.1671      0.00000
      8     183.5185      0.00000

 k-point   9 :       0.2895    0.2105    0.0000
  band No.  band energies     occupation 
      1      -4.7118      2.00000
      2      26.8093      0.00000
      3      38.9960      0.00000
      4      67.9994      0.00000
      5      70.8338      0.00000
      6     105.3013      0.00000
      7     110.4586      0.00000
      8     144.7068      0.00000

 k-point  10 :       0.2632    0.2368    0.0000
  band No.  band energies     occupation 
      1      -4.8873      2.00000
      2      29.6072      0.00000
      3      35.8252      0.00000
      4      66.7065      0.00000
      5      70.6585      0.00000
      6     103.2605      0.00000
      7     137.0177      0.00000
      8     173.5560      0.00000

 k-point  11 :       0.2368    0.2632    0.0000
  band No.  band energies     occupation 
      1      -4.8873      2.00000
      2      29.6072      0.00000
      3      35.8252      0.00000
      4      66.6930      0.00000
      5      70.8819      0.00000
      6     105.9663      0.00000
      7     107.3449      0.00000
      8     141.9345      0.00000

 k-point  12 :       0.2105    0.2895    0.0000
  band No.  band energies     occupation 
      1      -4.7118      2.00000
      2      26.8093      0.00000
      3      38.9960      0.00000
      4      66.8888      0.00000
      5      98.5352      0.00000
      6     103.5395      0.00000
      7     134.5020      0.00000
      8     178.0590      0.00000

 k-point  13 :       0.1842    0.3158    0.0000
  band No.  band energies     occupation 
      1      -4.3598      2.00000
      2      23.7116      0.00000
      3      42.8556      0.00000
      4      67.2849      0.00000
      5      98.4726      0.00000
      6     103.4619      0.00000
      7     119.4375      0.00000
      8     184.8545      0.00000

 k-point  14 :       0.1579    0.3421    0.0000
  band No.  band energies     occupation 
      1      -3.8361      2.00000
      2      20.7218      0.00000
      3      47.0001      0.00000
      4      67.8860      0.00000
      5      94.6932      0.00000
      6     118.8904      0.00000
      7     182.0285      0.00000
      8     190.7606      0.00000

 k-point  15 :       0.1316    0.3684    0.0000
  band No.  band energies     occupation 
      1      -3.1677      2.00000
      2      17.9103      0.00000
      3      51.2578      0.00000
      4      68.6635      0.00000
      5      73.2699      0.00000
      6      91.7950      0.00000
      7     119.8653      0.00000
      8     150.4194      0.00000

 k-point  16 :       0.1053    0.3947    0.0000
  band No.  band energies     occupation 
      1      -2.3604      0.00000
      2      15.3542      0.00000
      3      55.5620      0.00000
      4      69.7454      0.00000
      5      74.3650      0.00000
      6      91.4651      0.00000
      7     131.7851      0.00000
      8     183.9436      0.00000

 k-point  17 :       0.0789    0.4211    0.0000
  band No.  band energies     occupation 
      1      -1.4650      0.00000
      2      13.0930      0.00000
      3      59.7113      0.00000
      4      71.1308      0.00000
      5      88.0328      0.00000
      6     135.1055      0.00000
      7     154.8382      0.00000
      8     156.6918      0.00000

 k-point  18 :       0.0526    0.4474    0.0000
  band No.  band energies     occupation 
      1      -0.5733      0.00000
      2      11.2198      0.00000
      3      63.2958      0.00000
      4      73.0583      0.00000
      5      91.1553      0.00000
      6     147.6657      0.00000
      7     153.2792      0.00000
      8     157.9071      0.00000

 k-point  19 :       0.0263    0.4737    0.0000
  band No.  band energies     occupation 
      1       0.1404      0.00000
      2       9.9039      0.00000
      3      65.6785      0.00000
      4      75.6150      0.00000
      5      81.5978      0.00000
      6     146.9280      0.00000
      7     151.2914      0.00000
      8     159.1465      0.00000

 k-point  20 :       0.0000    0.5000    0.0000
  band No.  band energies     occupation 
      1       0.4316      0.00000
      2       9.4165      0.00000
      3      66.5008      0.00000
      4      82.5962      0.00000
      5      82.8871      0.00000
      6     145.3794      0.00000
      7     152.4064      0.00000
      8     153.3271      0.00000


--------------------------------------------------------------------------------------------------------


 soft charge-density along one line, spin component           1
         0         1         2         3         4         5         6         7         8         9
 total charge-density along one line
 
 pseudopotential strength for first ion, spin component:           1
 -2.263   0.001   0.000  -0.000   0.000
  0.001   0.049   0.000  -0.000   0.000
  0.000   0.000  -0.364  -0.000   0.000
 -0.000  -0.000  -0.000  -0.364  -0.000
  0.000   0.000   0.000  -0.000  -0.364
 total augmentation occupancy for first ion, spin component:           1
  1.000   0.000   0.000   0.000   0.000
  0.000   0.000   0.000   0.000   0.000
  0.000   0.000   0.000   0.000   0.000
  0.000   0.000   0.000   0.000   0.000
  0.000   0.000   0.000   0.000   0.000


------------------------ aborting loop because EDIFF is reached ----------------------------------------


 


 total charge     
 
# of ion     s       p       d       tot
----------------------------------------
  1        0.421   0.025   0.000   0.447
 
    CHARGE:  cpu time    0.00: real time    0.00
    FORLOC:  cpu time    0.00: real time    0.00
    FORNL :  cpu time    0.01: real time    0.01
    STRESS:  cpu time    0.02: real time    0.03
    FORHAR:  cpu time    0.00: real time    0.00

  FORCE on cell =-STRESS in cart. coord.  units (eV):
  Direction    XX          YY          ZZ          XY          YZ          ZX
  --------------------------------------------------------------------------------------
  Alpha Z     0.82382     0.82382     0.82382
  Ewald      -4.74404    -4.74404    -4.74404     0.00000    -0.00000    -0.00000
  Hartree     0.10369     0.10369     0.10369    -0.00000    -0.00000    -0.00000
  E(xc)      -2.81907    -2.81907    -2.81907     0.00000     0.00000     0.00000
  Local      -0.19571    -0.19571    -0.19571    -0.00000     0.00000     0.00000
  n-local    -1.93667    -1.93668    -2.06423     0.05032     0.00000    -0.00000
  augment     0.08387     0.08387     0.08387    -0.00000     0.00000     0.00000
  Kinetic    11.61925    11.61927     1.51208     7.25517    -0.00000    -0.00000
  Fock        0.00000     0.00000     0.00000     0.00000     0.00000     0.00000
  -------------------------------------------------------------------------------------
  Total      -0.47644    -0.47644    -0.47644     0.00000    -0.00000    -0.00000
  in kB    -258.12611  -258.12611  -258.12611     0.00000    -0.00000    -0.00000
  external pressure =     -258.13 kB  Pullay stress =        0.00 kB


 VOLUME and BASIS-vectors are now :
 -----------------------------------------------------------------------------
  energy-cutoff  :      325.00
  volume of cell :        2.96
      direct lattice vectors                 reciprocal lattice vectors
     1.435360550  0.000000000  0.000000000     0.696689065  0.000000000  0.000000000
     0.000000000  1.435360550  0.000000000     0.000000000  0.696689065  0.000000000
     0.000000000  0.000000000  1.435360550     0.000000000  0.000000000  0.696689065

  length of vectors
     1.435360550  1.435360550  1.435360550     0.696689065  0.696689065  0.696689065


 FORCES acting on ions
    electron-ion (+dipol)            ewald-force                    non-local-force                 convergence-correction
 -----------------------------------------------------------------------------------------------
   0.197E-16 0.205E-16 -.705E-16   0.377E-16 -.528E-16 -.515E-16   0.000E+00 0.000E+00 0.000E+00   0.144E-16 0.662E-17 0.176E-17
 -----------------------------------------------------------------------------------------------
   0.197E-16 0.205E-16 -.705E-16   0.377E-16 -.528E-16 -.515E-16   0.000E+00 0.000E+00 0.000E+00   0.144E-16 0.662E-17 0.176E-17
 
 
 POSITION                                       TOTAL-FORCE (eV/Angst)
 -----------------------------------------------------------------------------------
      0.00000      0.00000      0.00000         0.000000      0.000000      0.000000
 -----------------------------------------------------------------------------------
    total drift:                                0.000000     -0.000000     -0.000000


--------------------------------------------------------------------------------------------------------



  FREE ENERGIE OF THE ION-ELECTRON SYSTEM (eV)
  ---------------------------------------------------
  free  energy   TOTEN  =        -2.753816 eV

  energy  without entropy=       -2.753816  energy(sigma->0) =       -2.753816
 


--------------------------------------------------------------------------------------------------------


    POTLOK:  cpu time    0.00: real time    0.00


--------------------------------------------------------------------------------------------------------


 writing wavefunctions
     LOOP+:  cpu time    0.17: real time    0.35
    4ORBIT:  cpu time    0.00: real time    0.00
 


 total charge     
 
# of ion     s       p       d       tot
----------------------------------------
  1        0.421   0.025   0.000   0.447
 

 total amount of memory used by VASP on root node    30079. kBytes
========================================================================

   base      :      30000. kBytes
   nonlr-proj:         34. kBytes
   fftplans  :         22. kBytes
   grid      :         10. kBytes
   one-center:          1. kBytes
   wavefun   :         12. kBytes
 
  
  
 General timing and accounting informations for this job:
 ========================================================
  
                  Total CPU time used (sec):        0.409
                            User time (sec):        0.340
                          System time (sec):        0.069
                         Elapsed time (sec):        0.812
  
                   Maximum memory used (kb):       19984.
                   Average memory used (kb):           0.
  
                          Minor page faults:         3594
                          Major page faults:            0
                 Voluntary context switches:           21
