<?xml version="1.0" encoding="ISO-8859-1"?>
<modeling>
 <generator>
  <i name="program" type="string">vasp </i>
  <i name="version" type="string">5.2.12  </i>
  <i name="subversion" type="string">11Nov11 complex                                                      parallel </i>
  <i name="platform" type="string">LinuxIFC </i>
  <i name="date" type="string">2018 01 16 </i>
  <i name="time" type="string">21:15:52 </i>
 </generator>
 <incar>
  <i type="string" name="SYSTEM"> jump2</i>
  <i type="int" name="ISTART">     1</i>
  <i type="string" name="PREC">normal</i>
  <i type="string" name="ALGO"> veryfast</i>
  <i type="logical" name="ADDGRID"> T  </i>
  <i name="AMIN">      0.01000000</i>
  <i type="int" name="ICHARG">    11</i>
  <i type="int" name="NELM">   100</i>
  <i type="int" name="IBRION">    -1</i>
  <i name="EDIFF">      0.00010000</i>
  <i name="EDIFFG">     -0.01000000</i>
  <i type="int" name="NSW">     0</i>
  <i type="int" name="ISIF">     2</i>
  <i name="ENCUT">    325.00000000</i>
  <i type="int" name="NBANDS">     8</i>
  <i type="int" name="NEDOS">  2001</i>
  <i type="string" name="LREAL"> Auto</i>
  <i type="logical" name="LPLANE"> T  </i>
  <i type="int" name="ISMEAR">     0</i>
  <i name="SIGMA">      0.10000000</i>
  <i type="logical" name="LWAVE"> T  </i>
  <i type="logical" name="LCHARG"> F  </i>
  <i type="logical" name="LVTOT"> F  </i>
  <i type="logical" name="LVHAR"> F  </i>
  <i type="logical" name="LORBIT"> F  </i>
  <i type="int" name="NELM">   100</i>
 </incar>
 <kpoints>
  <generation param="listgenerated">
   <i name="divisions" type="int">      20 </i>
   <v>       0.50000000       0.00000000       0.00000000 </v>
   <v>       0.00000000       0.50000000       0.00000000 </v>
  </generation>
  <varray name="kpointlist" >
   <v>       0.50000000       0.00000000       0.00000000 </v>
   <v>       0.47368421       0.02631579       0.00000000 </v>
   <v>       0.44736842       0.05263158       0.00000000 </v>
   <v>       0.42105263       0.07894737       0.00000000 </v>
   <v>       0.39473684       0.10526316       0.00000000 </v>
   <v>       0.36842105       0.13157895       0.00000000 </v>
   <v>       0.34210526       0.15789474       0.00000000 </v>
   <v>       0.31578947       0.18421053       0.00000000 </v>
   <v>       0.28947368       0.21052632       0.00000000 </v>
   <v>       0.26315789       0.23684211       0.00000000 </v>
   <v>       0.23684211       0.26315789       0.00000000 </v>
   <v>       0.21052632       0.28947368       0.00000000 </v>
   <v>       0.18421053       0.31578947       0.00000000 </v>
   <v>       0.15789474       0.34210526       0.00000000 </v>
   <v>       0.13157895       0.36842105       0.00000000 </v>
   <v>       0.10526316       0.39473684       0.00000000 </v>
   <v>       0.07894737       0.42105263       0.00000000 </v>
   <v>       0.05263158       0.44736842       0.00000000 </v>
   <v>       0.02631579       0.47368421       0.00000000 </v>
   <v>       0.00000000       0.50000000       0.00000000 </v>
  </varray>
  <varray name="weights" >
   <v>       0.05000000 </v>
   <v>       0.05000000 </v>
   <v>       0.05000000 </v>
   <v>       0.05000000 </v>
   <v>       0.05000000 </v>
   <v>       0.05000000 </v>
   <v>       0.05000000 </v>
   <v>       0.05000000 </v>
   <v>       0.05000000 </v>
   <v>       0.05000000 </v>
   <v>       0.05000000 </v>
   <v>       0.05000000 </v>
   <v>       0.05000000 </v>
   <v>       0.05000000 </v>
   <v>       0.05000000 </v>
   <v>       0.05000000 </v>
   <v>       0.05000000 </v>
   <v>       0.05000000 </v>
   <v>       0.05000000 </v>
   <v>       0.05000000 </v>
  </varray>
 </kpoints>
 <parameters>
  <separator name="general" >
   <i type="string" name="SYSTEM">jump2</i>
   <i type="logical" name="LCOMPAT"> F  </i>
  </separator>
  <separator name="electronic" >
   <i type="string" name="PREC">normal</i>
   <i name="ENMAX">    325.00000000</i>
   <i name="ENAUG">    400.00000000</i>
   <i name="EDIFF">      0.00010000</i>
   <i type="int" name="IALGO">    48</i>
   <i type="int" name="IWAVPR">    10</i>
   <i type="int" name="NBANDS">     8</i>
   <i name="NELECT">      1.00000000</i>
   <i type="int" name="TURBO">     0</i>
   <i type="int" name="IRESTART">     0</i>
   <i type="int" name="NREBOOT">     0</i>
   <i type="int" name="NMIN">     0</i>
   <i name="EREF">      0.00000000</i>
   <separator name="electronic smearing" >
    <i type="int" name="ISMEAR">     0</i>
    <i name="SIGMA">      0.10000000</i>
    <i name="KSPACING">      0.50000000</i>
    <i type="logical" name="KGAMMA"> T  </i>
   </separator>
   <separator name="electronic projectors" >
    <i type="logical" name="LREAL"> T  </i>
    <v name="ROPT">     -0.00050000</v>
    <i type="int" name="LMAXPAW">  -100</i>
    <i type="int" name="LMAXMIX">     2</i>
    <i type="logical" name="NLSPLINE"> F  </i>
   </separator>
   <separator name="electronic startup" >
    <i type="int" name="ISTART">     1</i>
    <i type="int" name="ICHARG">    11</i>
    <i type="int" name="INIWAV">     1</i>
   </separator>
   <separator name="electronic spin" >
    <i type="int" name="ISPIN">     1</i>
    <i type="logical" name="LNONCOLLINEAR"> F  </i>
    <v name="MAGMOM">      1.00000000</v>
    <i name="NUPDOWN">     -1.00000000</i>
    <i type="logical" name="LSORBIT"> F  </i>
    <v name="SAXIS">      0.00000000      0.00000000      1.00000000</v>
    <i type="logical" name="LSPIRAL"> F  </i>
    <v name="QSPIRAL">      0.00000000      0.00000000      0.00000000</v>
    <i type="logical" name="LZEROZ"> F  </i>
   </separator>
   <separator name="electronic exchange-correlation" >
    <i type="logical" name="LASPH"> F  </i>
    <i type="logical" name="LMETAGGA"> F  </i>
   </separator>
   <separator name="electronic convergence" >
    <i type="int" name="NELM">   100</i>
    <i type="int" name="NELMDL">     0</i>
    <i type="int" name="NELMIN">     2</i>
    <i name="ENINI">    325.00000000</i>
    <separator name="electronic convergence detail" >
     <i type="logical" name="LDIAG"> T  </i>
     <i type="logical" name="LSUBROT"> T  </i>
     <i name="WEIMIN">      0.00000000</i>
     <i name="EBREAK">      0.00000313</i>
     <i name="DEPER">      0.30000000</i>
     <i type="int" name="NRMM">     4</i>
     <i name="TIME">      0.40000000</i>
    </separator>
   </separator>
   <separator name="electronic mixer" >
    <i name="AMIX">      0.40000000</i>
    <i name="BMIX">      1.00000000</i>
    <i name="AMIN">      0.01000000</i>
    <i name="AMIX_MAG">      1.60000000</i>
    <i name="BMIX_MAG">      1.00000000</i>
    <separator name="electronic mixer details" >
     <i type="int" name="IMIX">     4</i>
     <i type="int" name="MAXMIX">   -45</i>
     <i name="WC">    100.00000000</i>
     <i type="int" name="INIMIX">     1</i>
     <i type="int" name="MIXPRE">     1</i>
     <i type="int" name="MREMOVE">     5</i>
    </separator>
   </separator>
   <separator name="electronic dipolcorrection" >
    <i type="logical" name="LDIPOL"> F  </i>
    <i type="logical" name="LMONO"> F  </i>
    <i type="int" name="IDIPOL">     0</i>
    <i name="EPSILON">      1.00000000</i>
    <v name="DIPOL">   -100.00000000   -100.00000000   -100.00000000</v>
    <i name="EFIELD">      0.00000000</i>
   </separator>
  </separator>
  <separator name="grids" >
   <i type="int" name="NGX">     6</i>
   <i type="int" name="NGY">     6</i>
   <i type="int" name="NGZ">     6</i>
   <i type="int" name="NGXF">    12</i>
   <i type="int" name="NGYF">    12</i>
   <i type="int" name="NGZF">    12</i>
   <i type="logical" name="ADDGRID"> T  </i>
  </separator>
  <separator name="ionic" >
   <i type="int" name="NSW">     0</i>
   <i type="int" name="IBRION">    -1</i>
   <i type="int" name="ISIF">     2</i>
   <i name="PSTRESS">      0.00000000</i>
   <i name="EDIFFG">     -0.01000000</i>
   <i type="int" name="NFREE">     0</i>
   <i name="POTIM">      0.50000000</i>
   <i name="SMASS">     -3.00000000</i>
   <i name="SCALEE">      1.00000000</i>
  </separator>
  <separator name="ionic md" >
   <i name="TEBEG">      0.00010000</i>
   <i name="TEEND">      0.00010000</i>
   <i type="int" name="NBLOCK">     1</i>
   <i type="int" name="KBLOCK">     1</i>
   <i type="int" name="NPACO">   256</i>
   <i name="APACO">     16.00000000</i>
  </separator>
  <separator name="symmetry" >
   <i type="int" name="ISYM">     2</i>
   <i name="SYMPREC">      0.00001000</i>
  </separator>
  <separator name="dos" >
   <i type="logical" name="LORBIT"> F  </i>
   <v name="RWIGS">     -1.00000000</v>
   <i type="int" name="NEDOS">  2001</i>
   <i name="EMIN">     10.00000000</i>
   <i name="EMAX">    -10.00000000</i>
   <i name="EFERMI">      0.00000000</i>
  </separator>
  <separator name="writing" >
   <i type="int" name="NWRITE">     2</i>
   <i type="logical" name="LWAVE"> T  </i>
   <i type="logical" name="LCHARG"> F  </i>
   <i type="logical" name="LPARD"> F  </i>
   <i type="logical" name="LVTOT"> F  </i>
   <i type="logical" name="LVHAR"> F  </i>
   <i type="logical" name="LELF"> F  </i>
   <i type="logical" name="LOPTICS"> F  </i>
   <v name="STM">      0.00000000      0.00000000      0.00000000      0.00000000      0.00000000      0.00000000      0.00000000</v>
  </separator>
  <separator name="performance" >
   <i type="int" name="NPAR">     4</i>
   <i type="int" name="NSIM">     4</i>
   <i type="int" name="NBLK">    -1</i>
   <i type="logical" name="LPLANE"> T  </i>
   <i type="logical" name="LSCALAPACK"> T  </i>
   <i type="logical" name="LSCAAWARE"> T  </i>
   <i type="logical" name="LSCALU"> F  </i>
   <i type="logical" name="LASYNC"> F  </i>
   <i type="logical" name="LORBITALREAL"> F  </i>
  </separator>
  <separator name="miscellaneous" >
   <i type="int" name="IDIOT">     3</i>
   <i type="logical" name="LMUSIC"> F  </i>
   <v name="POMASS">      1.00000000</v>
   <v name="DARWINR">      0.00000000</v>
   <v name="DARWINV">      1.00000000</v>
   <i type="logical" name="LCORR"> T  </i>
  </separator>
  <i type="logical" name="GGA_COMPAT"> T  </i>
  <i type="logical" name="LBERRY"> F  </i>
  <i type="int" name="ICORELEVEL">     0</i>
  <i type="logical" name="LDAU"> F  </i>
  <i type="int" name="I_CONSTRAINED_M">     0</i>
  <separator name="electronic exchange-correlation" >
   <i type="string" name="GGA">--</i>
   <i type="int" name="VOSKOWN">     0</i>
   <i type="logical" name="LHFCALC"> F  </i>
   <i type="string" name="PRECFOCK"></i>
   <i type="logical" name="LHFONE"> F  </i>
   <i type="logical" name="LRHFCALC"> F  </i>
   <i type="logical" name="LTHOMAS"> F  </i>
   <i type="logical" name="LMODELHF"> F  </i>
   <i name="ENCUT4O">     -1.00000000</i>
   <i type="int" name="EXXOEP">     0</i>
   <i type="int" name="FOURORBIT">     0</i>
   <i name="AEXX">      0.00000000</i>
   <i name="HFALPHA">      0.00000000</i>
   <i name="ALDAX">      1.00000000</i>
   <i name="AGGAX">      1.00000000</i>
   <i name="ALDAC">      1.00000000</i>
   <i name="AGGAC">      1.00000000</i>
   <i type="int" name="NKREDX">     1</i>
   <i type="int" name="NKREDY">     1</i>
   <i type="int" name="NKREDZ">     1</i>
   <i type="logical" name="SHIFTRED"> F  </i>
   <i type="logical" name="ODDONLY"> F  </i>
   <i type="logical" name="EVENONLY"> F  </i>
   <i type="int" name="LMAXFOCK">     0</i>
   <i type="int" name="NMAXFOCKAE">     0</i>
   <i type="logical" name="LFOCKAEDFT"> F  </i>
   <i name="HFSCREEN">      0.00000000</i>
   <i name="HFSCREENC">      0.00000000</i>
  </separator>
  <separator name="vdW DFT" >
   <i type="logical" name="LUSE_VDW"> F  </i>
   <i name="Zab_VDW">     -0.84910000</i>
   <i name="PARAM1">      0.12340000</i>
   <i name="PARAM2">      1.00000000</i>
   <i name="PARAM3">      0.00000000</i>
  </separator>
  <separator name="model GW" >
   <i type="int" name="MODEL_GW">     0</i>
   <i name="MODEL_EPS0">      1.77432948</i>
   <i name="MODEL_ALPHA">      1.00000000</i>
  </separator>
  <separator name="linear response parameters" >
   <i type="logical" name="LEPSILON"> F  </i>
   <i type="logical" name="LRPA"> F  </i>
   <i type="logical" name="LNABLA"> F  </i>
   <i type="logical" name="LVEL"> F  </i>
   <i type="int" name="KINTER">     0</i>
   <i name="CSHIFT">      0.10000000</i>
   <i name="OMEGAMAX">     -1.00000000</i>
  </separator>
  <separator name="orbital magnetization" >
   <i type="logical" name="NUCIND"> F  </i>
   <v name="MAGPOS">      0.00000000      0.00000000      0.00000000</v>
   <i type="logical" name="LNICSALL"> T  </i>
   <i type="logical" name="ORBITALMAG"> F  </i>
   <i type="logical" name="LMAGBLOCH"> F  </i>
   <i type="logical" name="LCHIMAG"> F  </i>
   <i type="logical" name="LGAUGE"> T  </i>
   <i type="int" name="MAGATOM">     0</i>
   <v name="MAGDIPOL">      0.00000000      0.00000000      0.00000000</v>
   <v name="AVECCONST">      0.00000000      0.00000000      0.00000000</v>
  </separator>
  <separator name="response functions" >
   <i type="logical" name="LADDER"> F  </i>
   <i type="logical" name="LHARTREE"> T  </i>
   <i type="int" name="IBSE">     0</i>
   <i type="logical" name="LTCTE"> F  </i>
   <i type="logical" name="LTETE"> F  </i>
   <i type="logical" name="LFXCEPS"> F  </i>
   <i type="logical" name="L2ORDER"> F  </i>
   <i type="logical" name="LUSEW"> F  </i>
   <i name="ENCUTGW">     -2.00000000</i>
   <i name="ENCUTGWSOFT">     -2.00000000</i>
   <i name="ENCUTLF">     -1.00000000</i>
   <i type="int" name="LMAXMP2">    -1</i>
   <i name="SCISSOR">      0.00000000</i>
   <i type="int" name="NOMEGA">     0</i>
   <i type="int" name="NOMEGAR">     0</i>
   <i type="int" name="NBANDSGW">    -1</i>
   <i type="int" name="NBANDSO">    -1</i>
   <i type="int" name="NBANDSV">    -1</i>
   <i name="OPTEMAX">      0.00000000</i>
   <i type="int" name="NELM">   100</i>
   <i type="int" name="DIM">     3</i>
   <i type="int" name="ANTIRES">     0</i>
   <i name="OMEGAMAX">    -30.00000000</i>
   <i name="OMEGATL">   -200.00000000</i>
   <i type="int" name="OMEGAGRID">     0</i>
   <i name="CSHIFT">     -0.10000000</i>
   <i type="logical" name="SELFENERGY"> F  </i>
   <i type="logical" name="LSPECTRAL"> F  </i>
   <i type="logical" name="ODDONLYGW"> F  </i>
   <i type="logical" name="EVENONLYGW"> F  </i>
   <i type="int" name="NKREDLFX">     1</i>
   <i type="int" name="NKREDLFY">     1</i>
   <i type="int" name="NKREDLFZ">     1</i>
   <i type="int" name="MAXMEM">  1800</i>
   <i type="int" name="TELESCOPE">     0</i>
  </separator>
 </parameters>
 <atominfo>
  <atoms>       1 </atoms>
  <types>       1 </types>
  <array name="atoms" >
   <dimension dim="1">ion</dimension>
   <field type="string">element</field>
   <field type="int">atomtype</field>
   <set>
    <rc><c>H </c><c>   1</c></rc>
   </set>
  </array>
  <array name="atomtypes" >
   <dimension dim="1">type</dimension>
   <field type="int">atomspertype</field>
   <field type="string">element</field>
   <field>mass</field>
   <field>valence</field>
   <field type="string">pseudopotential</field>
   <set>
    <rc><c>   1</c><c>H </c><c>      1.00000000</c><c>      1.00000000</c><c> PAW_PBE H 15Jun2001                    </c></rc>
   </set>
  </array>
 </atominfo>
 <structure name="initialpos" >
  <crystal>
   <varray name="basis" >
    <v>       1.43536055       0.00000000       0.00000000 </v>
    <v>       0.00000000       1.43536055       0.00000000 </v>
    <v>       0.00000000       0.00000000       1.43536055 </v>
   </varray>
   <i name="volume">      2.95721580 </i>
   <varray name="rec_basis" >
    <v>       0.69668907       0.00000000       0.00000000 </v>
    <v>       0.00000000       0.69668907       0.00000000 </v>
    <v>       0.00000000       0.00000000       0.69668907 </v>
   </varray>
  </crystal>
  <varray name="positions" >
   <v>       0.00000000       0.00000000       0.00000000 </v>
  </varray>
 </structure>
 <calculation>
  <scstep>
   <time name="diag">    0.02    0.04</time>
   <time name="diis">    0.02    0.05</time>
   <time name="orth">    0.00    0.01</time>
   <time name="total">    0.05    0.10</time>
   <energy>
    <i name="alphaZ">      0.82381590 </i>
    <i name="ewald">    -14.23213143 </i>
    <i name="hartreedc">     -0.36095373 </i>
    <i name="XCdc">      2.76127529 </i>
    <i name="pawpsdc">      1.82026030 </i>
    <i name="pawaedc">     -1.83252046 </i>
    <i name="eentropy">     -0.00000000 </i>
    <i name="bandstr">     -4.19237462 </i>
    <i name="atom">     12.45896517 </i>
    <i name="e_fr_energy">     -2.75366359 </i>
    <i name="e_wo_entrp">     -2.75366358 </i>
    <i name="e_0_energy">     -2.75366359 </i>
   </energy>
  </scstep>
  <scstep>
   <time name="diag">    0.02    0.04</time>
   <time name="diis">    0.02    0.05</time>
   <time name="orth">    0.00    0.01</time>
   <time name="total">    0.05    0.09</time>
   <energy>
    <i name="e_fr_energy">     -2.75381557 </i>
    <i name="e_wo_entrp">     -2.75381557 </i>
    <i name="e_0_energy">     -2.75381557 </i>
   </energy>
  </scstep>
  <scstep>
   <time name="diag">    0.02    0.04</time>
   <time name="diis">    0.02    0.05</time>
   <time name="orth">    0.00    0.01</time>
   <time name="total">    0.04    0.09</time>
   <energy>
    <i name="alphaZ">      0.82381590 </i>
    <i name="ewald">    -14.23213143 </i>
    <i name="hartreedc">     -0.36095373 </i>
    <i name="XCdc">      2.76127529 </i>
    <i name="pawpsdc">      1.82026030 </i>
    <i name="pawaedc">     -1.83252046 </i>
    <i name="eentropy">     -0.00000000 </i>
    <i name="bandstr">     -4.19252661 </i>
    <i name="atom">     12.45896517 </i>
    <i name="e_fr_energy">     -2.75381557 </i>
    <i name="e_wo_entrp">     -2.75381557 </i>
    <i name="e_0_energy">     -2.75381557 </i>
   </energy>
  </scstep>
  <parameters_embedded>
   <separator name="dft+d2" >
    <i type="logical" name="LVDW"> F  </i>
   </separator>
  </parameters_embedded>
  <structure>
   <crystal>
    <varray name="basis" >
     <v>       1.43536055       0.00000000       0.00000000 </v>
     <v>       0.00000000       1.43536055       0.00000000 </v>
     <v>       0.00000000       0.00000000       1.43536055 </v>
    </varray>
    <i name="volume">      2.95721580 </i>
    <varray name="rec_basis" >
     <v>       0.69668907       0.00000000       0.00000000 </v>
     <v>       0.00000000       0.69668907       0.00000000 </v>
     <v>       0.00000000       0.00000000       0.69668907 </v>
    </varray>
   </crystal>
   <varray name="positions" >
    <v>       0.00000000       0.00000000       0.00000000 </v>
   </varray>
  </structure>
  <varray name="forces" >
   <v>       0.00000000       0.00000000       0.00000000 </v>
  </varray>
  <varray name="stress" >
   <v>    -258.12610637       0.00000000      -0.00000000 </v>
   <v>       0.00000000    -258.12610637      -0.00000000 </v>
   <v>      -0.00000000      -0.00000000    -258.12610637 </v>
  </varray>
  <energy>
   <i name="e_fr_energy">     -2.75381557 </i>
   <i name="e_wo_entrp">     -2.75381557 </i>
   <i name="e_0_energy">     -0.00000000 </i>
  </energy>
  <time name="totalsc">    0.17    0.35</time>
  <eigenvalues>
   <array>
    <dimension dim="1">band</dimension>
    <dimension dim="2">kpoint</dimension>
    <dimension dim="3">spin</dimension>
    <field>eigene</field>
    <field>occ</field>
    <set>
     <set comment="spin 1">
      <set comment="kpoint 1">
       <r>    0.4316    0.0000 </r>
       <r>    9.4165    0.0000 </r>
       <r>   66.4924    0.0000 </r>
       <r>   77.3419    0.0000 </r>
       <r>   81.7960    0.0000 </r>
       <r>  144.5179    0.0000 </r>
       <r>  153.2561    0.0000 </r>
       <r>  153.5162    0.0000 </r>
      </set>
      <set comment="kpoint 2">
       <r>    0.1404    0.0000 </r>
       <r>    9.9039    0.0000 </r>
       <r>   65.6796    0.0000 </r>
       <r>   75.8911    0.0000 </r>
       <r>   83.1827    0.0000 </r>
       <r>  147.3810    0.0000 </r>
       <r>  149.7916    0.0000 </r>
       <r>  230.3061    0.0000 </r>
      </set>
      <set comment="kpoint 3">
       <r>   -0.5733    0.0000 </r>
       <r>   11.2198    0.0000 </r>
       <r>   63.2990    0.0000 </r>
       <r>   73.2225    0.0000 </r>
       <r>  138.2238    0.0000 </r>
       <r>  146.5677    0.0000 </r>
       <r>  148.4480    0.0000 </r>
       <r>  221.0136    0.0000 </r>
      </set>
      <set comment="kpoint 4">
       <r>   -1.4650    0.0000 </r>
       <r>   13.0930    0.0000 </r>
       <r>   59.7119    0.0000 </r>
       <r>   71.1297    0.0000 </r>
       <r>   86.2074    0.0000 </r>
       <r>  138.6697    0.0000 </r>
       <r>  140.7998    0.0000 </r>
       <r>  148.4236    0.0000 </r>
      </set>
      <set comment="kpoint 5">
       <r>   -2.3604    0.0000 </r>
       <r>   15.3542    0.0000 </r>
       <r>   55.5620    0.0000 </r>
       <r>   70.0700    0.0000 </r>
       <r>   87.7568    0.0000 </r>
       <r>   90.8102    0.0000 </r>
       <r>  136.3609    0.0000 </r>
       <r>  181.5431    0.0000 </r>
      </set>
      <set comment="kpoint 6">
       <r>   -3.1677    1.0000 </r>
       <r>   17.9103    0.0000 </r>
       <r>   51.2579    0.0000 </r>
       <r>   69.1097    0.0000 </r>
       <r>   92.5569    0.0000 </r>
       <r>  116.2238    0.0000 </r>
       <r>  125.9043    0.0000 </r>
       <r>  146.8475    0.0000 </r>
      </set>
      <set comment="kpoint 7">
       <r>   -3.8361    1.0000 </r>
       <r>   20.7218    0.0000 </r>
       <r>   47.0002    0.0000 </r>
       <r>   67.9084    0.0000 </r>
       <r>   71.8659    0.0000 </r>
       <r>   95.5748    0.0000 </r>
       <r>  118.6621    0.0000 </r>
       <r>  164.0696    0.0000 </r>
      </set>
      <set comment="kpoint 8">
       <r>   -4.3598    1.0000 </r>
       <r>   23.7116    0.0000 </r>
       <r>   42.8556    0.0000 </r>
       <r>   67.5560    0.0000 </r>
       <r>   95.4140    0.0000 </r>
       <r>  114.6331    0.0000 </r>
       <r>  124.1671    0.0000 </r>
       <r>  183.5185    0.0000 </r>
      </set>
      <set comment="kpoint 9">
       <r>   -4.7118    1.0000 </r>
       <r>   26.8093    0.0000 </r>
       <r>   38.9960    0.0000 </r>
       <r>   67.9994    0.0000 </r>
       <r>   70.8338    0.0000 </r>
       <r>  105.3013    0.0000 </r>
       <r>  110.4586    0.0000 </r>
       <r>  144.7068    0.0000 </r>
      </set>
      <set comment="kpoint 10">
       <r>   -4.8873    1.0000 </r>
       <r>   29.6072    0.0000 </r>
       <r>   35.8252    0.0000 </r>
       <r>   66.7065    0.0000 </r>
       <r>   70.6585    0.0000 </r>
       <r>  103.2605    0.0000 </r>
       <r>  137.0177    0.0000 </r>
       <r>  173.5560    0.0000 </r>
      </set>
      <set comment="kpoint 11">
       <r>   -4.8873    1.0000 </r>
       <r>   29.6072    0.0000 </r>
       <r>   35.8252    0.0000 </r>
       <r>   66.6930    0.0000 </r>
       <r>   70.8819    0.0000 </r>
       <r>  105.9663    0.0000 </r>
       <r>  107.3449    0.0000 </r>
       <r>  141.9345    0.0000 </r>
      </set>
      <set comment="kpoint 12">
       <r>   -4.7118    1.0000 </r>
       <r>   26.8093    0.0000 </r>
       <r>   38.9960    0.0000 </r>
       <r>   66.8888    0.0000 </r>
       <r>   98.5352    0.0000 </r>
       <r>  103.5395    0.0000 </r>
       <r>  134.5020    0.0000 </r>
       <r>  178.0590    0.0000 </r>
      </set>
      <set comment="kpoint 13">
       <r>   -4.3598    1.0000 </r>
       <r>   23.7116    0.0000 </r>
       <r>   42.8556    0.0000 </r>
       <r>   67.2849    0.0000 </r>
       <r>   98.4726    0.0000 </r>
       <r>  103.4619    0.0000 </r>
       <r>  119.4375    0.0000 </r>
       <r>  184.8545    0.0000 </r>
      </set>
      <set comment="kpoint 14">
       <r>   -3.8361    1.0000 </r>
       <r>   20.7218    0.0000 </r>
       <r>   47.0001    0.0000 </r>
       <r>   67.8860    0.0000 </r>
       <r>   94.6932    0.0000 </r>
       <r>  118.8904    0.0000 </r>
       <r>  182.0285    0.0000 </r>
       <r>  190.7606    0.0000 </r>
      </set>
      <set comment="kpoint 15">
       <r>   -3.1677    1.0000 </r>
       <r>   17.9103    0.0000 </r>
       <r>   51.2578    0.0000 </r>
       <r>   68.6635    0.0000 </r>
       <r>   73.2699    0.0000 </r>
       <r>   91.7950    0.0000 </r>
       <r>  119.8653    0.0000 </r>
       <r>  150.4194    0.0000 </r>
      </set>
      <set comment="kpoint 16">
       <r>   -2.3604    0.0000 </r>
       <r>   15.3542    0.0000 </r>
       <r>   55.5620    0.0000 </r>
       <r>   69.7454    0.0000 </r>
       <r>   74.3650    0.0000 </r>
       <r>   91.4651    0.0000 </r>
       <r>  131.7851    0.0000 </r>
       <r>  183.9436    0.0000 </r>
      </set>
      <set comment="kpoint 17">
       <r>   -1.4650    0.0000 </r>
       <r>   13.0930    0.0000 </r>
       <r>   59.7113    0.0000 </r>
       <r>   71.1308    0.0000 </r>
       <r>   88.0328    0.0000 </r>
       <r>  135.1055    0.0000 </r>
       <r>  154.8382    0.0000 </r>
       <r>  156.6918    0.0000 </r>
      </set>
      <set comment="kpoint 18">
       <r>   -0.5733    0.0000 </r>
       <r>   11.2198    0.0000 </r>
       <r>   63.2958    0.0000 </r>
       <r>   73.0583    0.0000 </r>
       <r>   91.1553    0.0000 </r>
       <r>  147.6657    0.0000 </r>
       <r>  153.2792    0.0000 </r>
       <r>  157.9071    0.0000 </r>
      </set>
      <set comment="kpoint 19">
       <r>    0.1404    0.0000 </r>
       <r>    9.9039    0.0000 </r>
       <r>   65.6785    0.0000 </r>
       <r>   75.6150    0.0000 </r>
       <r>   81.5978    0.0000 </r>
       <r>  146.9280    0.0000 </r>
       <r>  151.2914    0.0000 </r>
       <r>  159.1465    0.0000 </r>
      </set>
      <set comment="kpoint 20">
       <r>    0.4316    0.0000 </r>
       <r>    9.4165    0.0000 </r>
       <r>   66.5008    0.0000 </r>
       <r>   82.5962    0.0000 </r>
       <r>   82.8871    0.0000 </r>
       <r>  145.3794    0.0000 </r>
       <r>  152.4064    0.0000 </r>
       <r>  153.3271    0.0000 </r>
      </set>
     </set>
    </set>
   </array>
  </eigenvalues>
  <separator name="orbital magnetization" >
   <v name="MAGDIPOLOUT">      0.00000000      0.00000000      0.00000000</v>
  </separator>
  <dos>
   <i name="efermi">     -2.76407749 </i>
   <total>
    <array>
     <dimension dim="1">gridpoints</dimension>
     <dimension dim="2">spin</dimension>
     <field>energy</field>
     <field>total</field>
     <field>integrated</field>
     <set>
      <set comment="spin 1">
       <r>   -16.6470     0.0000     0.0000 </r>
       <r>   -16.5176     0.0000     0.0000 </r>
       <r>   -16.3882     0.0000     0.0000 </r>
       <r>   -16.2589     0.0000     0.0000 </r>
       <r>   -16.1295     0.0000     0.0000 </r>
       <r>   -16.0002     0.0000     0.0000 </r>
       <r>   -15.8708     0.0000     0.0000 </r>
       <r>   -15.7415     0.0000     0.0000 </r>
       <r>   -15.6121     0.0000     0.0000 </r>
       <r>   -15.4828     0.0000     0.0000 </r>
       <r>   -15.3534     0.0000     0.0000 </r>
       <r>   -15.2240     0.0000     0.0000 </r>
       <r>   -15.0947     0.0000     0.0000 </r>
       <r>   -14.9653     0.0000     0.0000 </r>
       <r>   -14.8360     0.0000     0.0000 </r>
       <r>   -14.7066     0.0000     0.0000 </r>
       <r>   -14.5773     0.0000     0.0000 </r>
       <r>   -14.4479     0.0000     0.0000 </r>
       <r>   -14.3185     0.0000     0.0000 </r>
       <r>   -14.1892     0.0000     0.0000 </r>
       <r>   -14.0598     0.0000     0.0000 </r>
       <r>   -13.9305     0.0000     0.0000 </r>
       <r>   -13.8011     0.0000     0.0000 </r>
       <r>   -13.6718     0.0000     0.0000 </r>
       <r>   -13.5424     0.0000     0.0000 </r>
       <r>   -13.4131     0.0000     0.0000 </r>
       <r>   -13.2837     0.0000     0.0000 </r>
       <r>   -13.1543     0.0000     0.0000 </r>
       <r>   -13.0250     0.0000     0.0000 </r>
       <r>   -12.8956     0.0000     0.0000 </r>
       <r>   -12.7663     0.0000     0.0000 </r>
       <r>   -12.6369     0.0000     0.0000 </r>
       <r>   -12.5076     0.0000     0.0000 </r>
       <r>   -12.3782     0.0000     0.0000 </r>
       <r>   -12.2488     0.0000     0.0000 </r>
       <r>   -12.1195     0.0000     0.0000 </r>
       <r>   -11.9901     0.0000     0.0000 </r>
       <r>   -11.8608     0.0000     0.0000 </r>
       <r>   -11.7314     0.0000     0.0000 </r>
       <r>   -11.6021     0.0000     0.0000 </r>
       <r>   -11.4727     0.0000     0.0000 </r>
       <r>   -11.3433     0.0000     0.0000 </r>
       <r>   -11.2140     0.0000     0.0000 </r>
       <r>   -11.0846     0.0000     0.0000 </r>
       <r>   -10.9553     0.0000     0.0000 </r>
       <r>   -10.8259     0.0000     0.0000 </r>
       <r>   -10.6966     0.0000     0.0000 </r>
       <r>   -10.5672     0.0000     0.0000 </r>
       <r>   -10.4379     0.0000     0.0000 </r>
       <r>   -10.3085     0.0000     0.0000 </r>
       <r>   -10.1791     0.0000     0.0000 </r>
       <r>   -10.0498     0.0000     0.0000 </r>
       <r>    -9.9204     0.0000     0.0000 </r>
       <r>    -9.7911     0.0000     0.0000 </r>
       <r>    -9.6617     0.0000     0.0000 </r>
       <r>    -9.5324     0.0000     0.0000 </r>
       <r>    -9.4030     0.0000     0.0000 </r>
       <r>    -9.2736     0.0000     0.0000 </r>
       <r>    -9.1443     0.0000     0.0000 </r>
       <r>    -9.0149     0.0000     0.0000 </r>
       <r>    -8.8856     0.0000     0.0000 </r>
       <r>    -8.7562     0.0000     0.0000 </r>
       <r>    -8.6269     0.0000     0.0000 </r>
       <r>    -8.4975     0.0000     0.0000 </r>
       <r>    -8.3682     0.0000     0.0000 </r>
       <r>    -8.2388     0.0000     0.0000 </r>
       <r>    -8.1094     0.0000     0.0000 </r>
       <r>    -7.9801     0.0000     0.0000 </r>
       <r>    -7.8507     0.0000     0.0000 </r>
       <r>    -7.7214     0.0000     0.0000 </r>
       <r>    -7.5920     0.0000     0.0000 </r>
       <r>    -7.4627     0.0000     0.0000 </r>
       <r>    -7.3333     0.0000     0.0000 </r>
       <r>    -7.2039     0.0000     0.0000 </r>
       <r>    -7.0746     0.0000     0.0000 </r>
       <r>    -6.9452     0.0000     0.0000 </r>
       <r>    -6.8159     0.0000     0.0000 </r>
       <r>    -6.6865     0.0000     0.0000 </r>
       <r>    -6.5572     0.0000     0.0000 </r>
       <r>    -6.4278     0.0000     0.0000 </r>
       <r>    -6.2985     0.0000     0.0000 </r>
       <r>    -6.1691     0.0000     0.0000 </r>
       <r>    -6.0397     0.0000     0.0000 </r>
       <r>    -5.9104     0.0000     0.0000 </r>
       <r>    -5.7810     0.0000     0.0000 </r>
       <r>    -5.6517     0.0000     0.0000 </r>
       <r>    -5.5223     0.0000     0.0000 </r>
       <r>    -5.3930     0.0000     0.0000 </r>
       <r>    -5.2636     0.0000     0.0000 </r>
       <r>    -5.1342     0.0004     0.0000 </r>
       <r>    -5.0049     0.0741     0.0096 </r>
       <r>    -4.8755     0.8166     0.1153 </r>
       <r>    -4.7462     1.1039     0.2581 </r>
       <r>    -4.6168     0.9588     0.3821 </r>
       <r>    -4.4875     0.1922     0.4069 </r>
       <r>    -4.3581     0.7339     0.5019 </r>
       <r>    -4.2287     0.7092     0.5936 </r>
       <r>    -4.0994     0.0494     0.6000 </r>
       <r>    -3.9700     0.0450     0.6058 </r>
       <r>    -3.8407     0.6880     0.6948 </r>
       <r>    -3.7113     0.7531     0.7922 </r>
       <r>    -3.5820     0.0598     0.8000 </r>
       <r>    -3.4526     0.0003     0.8000 </r>
       <r>    -3.3233     0.0215     0.8028 </r>
       <r>    -3.1939     0.5284     0.8711 </r>
       <r>    -3.0645     0.8845     0.9856 </r>
       <r>    -2.9352     0.1109     0.9999 </r>
       <r>    -2.8058     0.0008     1.0000 </r>
       <r>    -2.6765     0.0000     1.0000 </r>
       <r>    -2.5471     0.0064     1.0008 </r>
       <r>    -2.4178     0.3162     1.0417 </r>
       <r>    -2.2884     0.9850     1.1691 </r>
       <r>    -2.1590     0.2351     1.1996 </r>
       <r>    -2.0297     0.0034     1.2000 </r>
       <r>    -1.9003     0.0000     1.2000 </r>
       <r>    -1.7710     0.0000     1.2000 </r>
       <r>    -1.6416     0.0097     1.2013 </r>
       <r>    -1.5123     0.3800     1.2504 </r>
       <r>    -1.3829     0.9667     1.3754 </r>
       <r>    -1.2536     0.1877     1.3997 </r>
       <r>    -1.1242     0.0022     1.4000 </r>
       <r>    -0.9948     0.0000     1.4000 </r>
       <r>    -0.8655     0.0000     1.4000 </r>
       <r>    -0.7361     0.0164     1.4021 </r>
       <r>    -0.6068     0.4753     1.4636 </r>
       <r>    -0.4774     0.9191     1.5825 </r>
       <r>    -0.3481     0.1342     1.5999 </r>
       <r>    -0.2187     0.0011     1.6000 </r>
       <r>    -0.0893     0.0009     1.6001 </r>
       <r>     0.0400     0.1196     1.6156 </r>
       <r>     0.1694     0.8989     1.7319 </r>
       <r>     0.2987     0.5539     1.8035 </r>
       <r>     0.4281     0.7151     1.8960 </r>
       <r>     0.5574     0.7457     1.9925 </r>
       <r>     0.6868     0.0579     2.0000 </r>
       <r>     0.8162     0.0002     2.0000 </r>
       <r>     0.9455     0.0000     2.0000 </r>
       <r>     1.0749     0.0000     2.0000 </r>
       <r>     1.2042     0.0000     2.0000 </r>
       <r>     1.3336     0.0000     2.0000 </r>
       <r>     1.4629     0.0000     2.0000 </r>
       <r>     1.5923     0.0000     2.0000 </r>
       <r>     1.7216     0.0000     2.0000 </r>
       <r>     1.8510     0.0000     2.0000 </r>
       <r>     1.9804     0.0000     2.0000 </r>
       <r>     2.1097     0.0000     2.0000 </r>
       <r>     2.2391     0.0000     2.0000 </r>
       <r>     2.3684     0.0000     2.0000 </r>
       <r>     2.4978     0.0000     2.0000 </r>
       <r>     2.6271     0.0000     2.0000 </r>
       <r>     2.7565     0.0000     2.0000 </r>
       <r>     2.8859     0.0000     2.0000 </r>
       <r>     3.0152     0.0000     2.0000 </r>
       <r>     3.1446     0.0000     2.0000 </r>
       <r>     3.2739     0.0000     2.0000 </r>
       <r>     3.4033     0.0000     2.0000 </r>
       <r>     3.5326     0.0000     2.0000 </r>
       <r>     3.6620     0.0000     2.0000 </r>
       <r>     3.7913     0.0000     2.0000 </r>
       <r>     3.9207     0.0000     2.0000 </r>
       <r>     4.0501     0.0000     2.0000 </r>
       <r>     4.1794     0.0000     2.0000 </r>
       <r>     4.3088     0.0000     2.0000 </r>
       <r>     4.4381     0.0000     2.0000 </r>
       <r>     4.5675     0.0000     2.0000 </r>
       <r>     4.6968     0.0000     2.0000 </r>
       <r>     4.8262     0.0000     2.0000 </r>
       <r>     4.9556     0.0000     2.0000 </r>
       <r>     5.0849     0.0000     2.0000 </r>
       <r>     5.2143     0.0000     2.0000 </r>
       <r>     5.3436     0.0000     2.0000 </r>
       <r>     5.4730     0.0000     2.0000 </r>
       <r>     5.6023     0.0000     2.0000 </r>
       <r>     5.7317     0.0000     2.0000 </r>
       <r>     5.8611     0.0000     2.0000 </r>
       <r>     5.9904     0.0000     2.0000 </r>
       <r>     6.1198     0.0000     2.0000 </r>
       <r>     6.2491     0.0000     2.0000 </r>
       <r>     6.3785     0.0000     2.0000 </r>
       <r>     6.5078     0.0000     2.0000 </r>
       <r>     6.6372     0.0000     2.0000 </r>
       <r>     6.7665     0.0000     2.0000 </r>
       <r>     6.8959     0.0000     2.0000 </r>
       <r>     7.0253     0.0000     2.0000 </r>
       <r>     7.1546     0.0000     2.0000 </r>
       <r>     7.2840     0.0000     2.0000 </r>
       <r>     7.4133     0.0000     2.0000 </r>
       <r>     7.5427     0.0000     2.0000 </r>
       <r>     7.6720     0.0000     2.0000 </r>
       <r>     7.8014     0.0000     2.0000 </r>
       <r>     7.9308     0.0000     2.0000 </r>
       <r>     8.0601     0.0000     2.0000 </r>
       <r>     8.1895     0.0000     2.0000 </r>
       <r>     8.3188     0.0000     2.0000 </r>
       <r>     8.4482     0.0000     2.0000 </r>
       <r>     8.5775     0.0000     2.0000 </r>
       <r>     8.7069     0.0000     2.0000 </r>
       <r>     8.8362     0.0000     2.0000 </r>
       <r>     8.9656     0.0000     2.0000 </r>
       <r>     9.0950     0.0000     2.0000 </r>
       <r>     9.2243     0.0051     2.0007 </r>
       <r>     9.3537     0.2844     2.0374 </r>
       <r>     9.4830     0.9887     2.1653 </r>
       <r>     9.6124     0.2636     2.1994 </r>
       <r>     9.7417     0.0212     2.2022 </r>
       <r>     9.8711     0.4801     2.2643 </r>
       <r>    10.0005     0.9162     2.3828 </r>
       <r>    10.1298     0.1319     2.3999 </r>
       <r>    10.2592     0.0011     2.4000 </r>
       <r>    10.3885     0.0000     2.4000 </r>
       <r>    10.5179     0.0000     2.4000 </r>
       <r>    10.6472     0.0000     2.4000 </r>
       <r>    10.7766     0.0000     2.4000 </r>
       <r>    10.9059     0.0000     2.4000 </r>
       <r>    11.0353     0.0070     2.4009 </r>
       <r>    11.1647     0.3296     2.4435 </r>
       <r>    11.2940     0.9822     2.5706 </r>
       <r>    11.4234     0.2242     2.5996 </r>
       <r>    11.5527     0.0031     2.6000 </r>
       <r>    11.6821     0.0000     2.6000 </r>
       <r>    11.8114     0.0000     2.6000 </r>
       <r>    11.9408     0.0000     2.6000 </r>
       <r>    12.0702     0.0000     2.6000 </r>
       <r>    12.1995     0.0000     2.6000 </r>
       <r>    12.3289     0.0000     2.6000 </r>
       <r>    12.4582     0.0000     2.6000 </r>
       <r>    12.5876     0.0000     2.6000 </r>
       <r>    12.7169     0.0000     2.6000 </r>
       <r>    12.8463     0.0004     2.6000 </r>
       <r>    12.9757     0.0745     2.6097 </r>
       <r>    13.1050     0.8021     2.7134 </r>
       <r>    13.2344     0.6338     2.7954 </r>
       <r>    13.3637     0.0352     2.8000 </r>
       <r>    13.4931     0.0001     2.8000 </r>
       <r>    13.6224     0.0000     2.8000 </r>
       <r>    13.7518     0.0000     2.8000 </r>
       <r>    13.8811     0.0000     2.8000 </r>
       <r>    14.0105     0.0000     2.8000 </r>
       <r>    14.1399     0.0000     2.8000 </r>
       <r>    14.2692     0.0000     2.8000 </r>
       <r>    14.3986     0.0000     2.8000 </r>
       <r>    14.5279     0.0000     2.8000 </r>
       <r>    14.6573     0.0000     2.8000 </r>
       <r>    14.7866     0.0000     2.8000 </r>
       <r>    14.9160     0.0000     2.8000 </r>
       <r>    15.0454     0.0000     2.8000 </r>
       <r>    15.1747     0.0086     2.8011 </r>
       <r>    15.3041     0.3613     2.8478 </r>
       <r>    15.4334     0.9733     2.9738 </r>
       <r>    15.5628     0.2004     2.9997 </r>
       <r>    15.6921     0.0025     3.0000 </r>
       <r>    15.8215     0.0000     3.0000 </r>
       <r>    15.9508     0.0000     3.0000 </r>
       <r>    16.0802     0.0000     3.0000 </r>
       <r>    16.2096     0.0000     3.0000 </r>
       <r>    16.3389     0.0000     3.0000 </r>
       <r>    16.4683     0.0000     3.0000 </r>
       <r>    16.5976     0.0000     3.0000 </r>
       <r>    16.7270     0.0000     3.0000 </r>
       <r>    16.8563     0.0000     3.0000 </r>
       <r>    16.9857     0.0000     3.0000 </r>
       <r>    17.1151     0.0000     3.0000 </r>
       <r>    17.2444     0.0000     3.0000 </r>
       <r>    17.3738     0.0000     3.0000 </r>
       <r>    17.5031     0.0000     3.0000 </r>
       <r>    17.6325     0.0001     3.0000 </r>
       <r>    17.7618     0.0275     3.0036 </r>
       <r>    17.8912     0.5804     3.0787 </r>
       <r>    18.0206     0.8460     3.1881 </r>
       <r>    18.1499     0.0915     3.1999 </r>
       <r>    18.2793     0.0005     3.2000 </r>
       <r>    18.4086     0.0000     3.2000 </r>
       <r>    18.5380     0.0000     3.2000 </r>
       <r>    18.6673     0.0000     3.2000 </r>
       <r>    18.7967     0.0000     3.2000 </r>
       <r>    18.9260     0.0000     3.2000 </r>
       <r>    19.0554     0.0000     3.2000 </r>
       <r>    19.1848     0.0000     3.2000 </r>
       <r>    19.3141     0.0000     3.2000 </r>
       <r>    19.4435     0.0000     3.2000 </r>
       <r>    19.5728     0.0000     3.2000 </r>
       <r>    19.7022     0.0000     3.2000 </r>
       <r>    19.8315     0.0000     3.2000 </r>
       <r>    19.9609     0.0000     3.2000 </r>
       <r>    20.0903     0.0000     3.2000 </r>
       <r>    20.2196     0.0000     3.2000 </r>
       <r>    20.3490     0.0000     3.2000 </r>
       <r>    20.4783     0.0004     3.2001 </r>
       <r>    20.6077     0.0818     3.2106 </r>
       <r>    20.7370     0.8224     3.3170 </r>
       <r>    20.8664     0.6098     3.3959 </r>
       <r>    20.9957     0.0315     3.4000 </r>
       <r>    21.1251     0.0001     3.4000 </r>
       <r>    21.2545     0.0000     3.4000 </r>
       <r>    21.3838     0.0000     3.4000 </r>
       <r>    21.5132     0.0000     3.4000 </r>
       <r>    21.6425     0.0000     3.4000 </r>
       <r>    21.7719     0.0000     3.4000 </r>
       <r>    21.9012     0.0000     3.4000 </r>
       <r>    22.0306     0.0000     3.4000 </r>
       <r>    22.1600     0.0000     3.4000 </r>
       <r>    22.2893     0.0000     3.4000 </r>
       <r>    22.4187     0.0000     3.4000 </r>
       <r>    22.5480     0.0000     3.4000 </r>
       <r>    22.6774     0.0000     3.4000 </r>
       <r>    22.8067     0.0000     3.4000 </r>
       <r>    22.9361     0.0000     3.4000 </r>
       <r>    23.0654     0.0000     3.4000 </r>
       <r>    23.1948     0.0000     3.4000 </r>
       <r>    23.3242     0.0000     3.4000 </r>
       <r>    23.4535     0.0002     3.4000 </r>
       <r>    23.5829     0.0529     3.4069 </r>
       <r>    23.7122     0.7256     3.5007 </r>
       <r>    23.8416     0.7164     3.5934 </r>
       <r>    23.9709     0.0508     3.6000 </r>
       <r>    24.1003     0.0002     3.6000 </r>
       <r>    24.2297     0.0000     3.6000 </r>
       <r>    24.3590     0.0000     3.6000 </r>
       <r>    24.4884     0.0000     3.6000 </r>
       <r>    24.6177     0.0000     3.6000 </r>
       <r>    24.7471     0.0000     3.6000 </r>
       <r>    24.8764     0.0000     3.6000 </r>
       <r>    25.0058     0.0000     3.6000 </r>
       <r>    25.1352     0.0000     3.6000 </r>
       <r>    25.2645     0.0000     3.6000 </r>
       <r>    25.3939     0.0000     3.6000 </r>
       <r>    25.5232     0.0000     3.6000 </r>
       <r>    25.6526     0.0000     3.6000 </r>
       <r>    25.7819     0.0000     3.6000 </r>
       <r>    25.9113     0.0000     3.6000 </r>
       <r>    26.0406     0.0000     3.6000 </r>
       <r>    26.1700     0.0000     3.6000 </r>
       <r>    26.2994     0.0000     3.6000 </r>
       <r>    26.4287     0.0000     3.6000 </r>
       <r>    26.5581     0.0003     3.6000 </r>
       <r>    26.6874     0.0653     3.6085 </r>
       <r>    26.8168     0.7728     3.7084 </r>
       <r>    26.9461     0.6668     3.7947 </r>
       <r>    27.0755     0.0408     3.8000 </r>
       <r>    27.2049     0.0001     3.8000 </r>
       <r>    27.3342     0.0000     3.8000 </r>
       <r>    27.4636     0.0000     3.8000 </r>
       <r>    27.5929     0.0000     3.8000 </r>
       <r>    27.7223     0.0000     3.8000 </r>
       <r>    27.8516     0.0000     3.8000 </r>
       <r>    27.9810     0.0000     3.8000 </r>
       <r>    28.1103     0.0000     3.8000 </r>
       <r>    28.2397     0.0000     3.8000 </r>
       <r>    28.3691     0.0000     3.8000 </r>
       <r>    28.4984     0.0000     3.8000 </r>
       <r>    28.6278     0.0000     3.8000 </r>
       <r>    28.7571     0.0000     3.8000 </r>
       <r>    28.8865     0.0000     3.8000 </r>
       <r>    29.0158     0.0000     3.8000 </r>
       <r>    29.1452     0.0000     3.8000 </r>
       <r>    29.2746     0.0000     3.8000 </r>
       <r>    29.4039     0.0031     3.8004 </r>
       <r>    29.5333     0.2256     3.8296 </r>
       <r>    29.6626     0.9827     3.9567 </r>
       <r>    29.7920     0.3278     3.9991 </r>
       <r>    29.9213     0.0069     4.0000 </r>
       <r>    30.0507     0.0000     4.0000 </r>
       <r>    30.1801     0.0000     4.0000 </r>
       <r>    30.3094     0.0000     4.0000 </r>
       <r>    30.4388     0.0000     4.0000 </r>
       <r>    30.5681     0.0000     4.0000 </r>
       <r>    30.6975     0.0000     4.0000 </r>
       <r>    30.8268     0.0000     4.0000 </r>
       <r>    30.9562     0.0000     4.0000 </r>
       <r>    31.0855     0.0000     4.0000 </r>
       <r>    31.2149     0.0000     4.0000 </r>
       <r>    31.3443     0.0000     4.0000 </r>
       <r>    31.4736     0.0000     4.0000 </r>
       <r>    31.6030     0.0000     4.0000 </r>
       <r>    31.7323     0.0000     4.0000 </r>
       <r>    31.8617     0.0000     4.0000 </r>
       <r>    31.9910     0.0000     4.0000 </r>
       <r>    32.1204     0.0000     4.0000 </r>
       <r>    32.2498     0.0000     4.0000 </r>
       <r>    32.3791     0.0000     4.0000 </r>
       <r>    32.5085     0.0000     4.0000 </r>
       <r>    32.6378     0.0000     4.0000 </r>
       <r>    32.7672     0.0000     4.0000 </r>
       <r>    32.8965     0.0000     4.0000 </r>
       <r>    33.0259     0.0000     4.0000 </r>
       <r>    33.1552     0.0000     4.0000 </r>
       <r>    33.2846     0.0000     4.0000 </r>
       <r>    33.4140     0.0000     4.0000 </r>
       <r>    33.5433     0.0000     4.0000 </r>
       <r>    33.6727     0.0000     4.0000 </r>
       <r>    33.8020     0.0000     4.0000 </r>
       <r>    33.9314     0.0000     4.0000 </r>
       <r>    34.0607     0.0000     4.0000 </r>
       <r>    34.1901     0.0000     4.0000 </r>
       <r>    34.3195     0.0000     4.0000 </r>
       <r>    34.4488     0.0000     4.0000 </r>
       <r>    34.5782     0.0000     4.0000 </r>
       <r>    34.7075     0.0000     4.0000 </r>
       <r>    34.8369     0.0000     4.0000 </r>
       <r>    34.9662     0.0000     4.0000 </r>
       <r>    35.0956     0.0000     4.0000 </r>
       <r>    35.2249     0.0000     4.0000 </r>
       <r>    35.3543     0.0000     4.0000 </r>
       <r>    35.4837     0.0000     4.0000 </r>
       <r>    35.6130     0.0021     4.0003 </r>
       <r>    35.7424     0.1847     4.0242 </r>
       <r>    35.8717     0.9649     4.1490 </r>
       <r>    36.0011     0.3845     4.1987 </r>
       <r>    36.1304     0.0099     4.2000 </r>
       <r>    36.2598     0.0000     4.2000 </r>
       <r>    36.3892     0.0000     4.2000 </r>
       <r>    36.5185     0.0000     4.2000 </r>
       <r>    36.6479     0.0000     4.2000 </r>
       <r>    36.7772     0.0000     4.2000 </r>
       <r>    36.9066     0.0000     4.2000 </r>
       <r>    37.0359     0.0000     4.2000 </r>
       <r>    37.1653     0.0000     4.2000 </r>
       <r>    37.2947     0.0000     4.2000 </r>
       <r>    37.4240     0.0000     4.2000 </r>
       <r>    37.5534     0.0000     4.2000 </r>
       <r>    37.6827     0.0000     4.2000 </r>
       <r>    37.8121     0.0000     4.2000 </r>
       <r>    37.9414     0.0000     4.2000 </r>
       <r>    38.0708     0.0000     4.2000 </r>
       <r>    38.2001     0.0000     4.2000 </r>
       <r>    38.3295     0.0000     4.2000 </r>
       <r>    38.4589     0.0000     4.2000 </r>
       <r>    38.5882     0.0000     4.2000 </r>
       <r>    38.7176     0.0001     4.2000 </r>
       <r>    38.8469     0.0270     4.2035 </r>
       <r>    38.9763     0.5760     4.2780 </r>
       <r>    39.1056     0.8494     4.3879 </r>
       <r>    39.2350     0.0931     4.3999 </r>
       <r>    39.3644     0.0006     4.4000 </r>
       <r>    39.4937     0.0000     4.4000 </r>
       <r>    39.6231     0.0000     4.4000 </r>
       <r>    39.7524     0.0000     4.4000 </r>
       <r>    39.8818     0.0000     4.4000 </r>
       <r>    40.0111     0.0000     4.4000 </r>
       <r>    40.1405     0.0000     4.4000 </r>
       <r>    40.2698     0.0000     4.4000 </r>
       <r>    40.3992     0.0000     4.4000 </r>
       <r>    40.5286     0.0000     4.4000 </r>
       <r>    40.6579     0.0000     4.4000 </r>
       <r>    40.7873     0.0000     4.4000 </r>
       <r>    40.9166     0.0000     4.4000 </r>
       <r>    41.0460     0.0000     4.4000 </r>
       <r>    41.1753     0.0000     4.4000 </r>
       <r>    41.3047     0.0000     4.4000 </r>
       <r>    41.4341     0.0000     4.4000 </r>
       <r>    41.5634     0.0000     4.4000 </r>
       <r>    41.6928     0.0000     4.4000 </r>
       <r>    41.8221     0.0000     4.4000 </r>
       <r>    41.9515     0.0000     4.4000 </r>
       <r>    42.0808     0.0000     4.4000 </r>
       <r>    42.2102     0.0000     4.4000 </r>
       <r>    42.3396     0.0000     4.4000 </r>
       <r>    42.4689     0.0000     4.4000 </r>
       <r>    42.5983     0.0002     4.4000 </r>
       <r>    42.7276     0.0542     4.4070 </r>
       <r>    42.8570     0.7309     4.5016 </r>
       <r>    42.9863     0.7110     4.5936 </r>
       <r>    43.1157     0.0496     4.6000 </r>
       <r>    43.2450     0.0002     4.6000 </r>
       <r>    43.3744     0.0000     4.6000 </r>
       <r>    43.5038     0.0000     4.6000 </r>
       <r>    43.6331     0.0000     4.6000 </r>
       <r>    43.7625     0.0000     4.6000 </r>
       <r>    43.8918     0.0000     4.6000 </r>
       <r>    44.0212     0.0000     4.6000 </r>
       <r>    44.1505     0.0000     4.6000 </r>
       <r>    44.2799     0.0000     4.6000 </r>
       <r>    44.4093     0.0000     4.6000 </r>
       <r>    44.5386     0.0000     4.6000 </r>
       <r>    44.6680     0.0000     4.6000 </r>
       <r>    44.7973     0.0000     4.6000 </r>
       <r>    44.9267     0.0000     4.6000 </r>
       <r>    45.0560     0.0000     4.6000 </r>
       <r>    45.1854     0.0000     4.6000 </r>
       <r>    45.3147     0.0000     4.6000 </r>
       <r>    45.4441     0.0000     4.6000 </r>
       <r>    45.5735     0.0000     4.6000 </r>
       <r>    45.7028     0.0000     4.6000 </r>
       <r>    45.8322     0.0000     4.6000 </r>
       <r>    45.9615     0.0000     4.6000 </r>
       <r>    46.0909     0.0000     4.6000 </r>
       <r>    46.2202     0.0000     4.6000 </r>
       <r>    46.3496     0.0000     4.6000 </r>
       <r>    46.4790     0.0000     4.6000 </r>
       <r>    46.6083     0.0000     4.6000 </r>
       <r>    46.7377     0.0002     4.6000 </r>
       <r>    46.8670     0.0460     4.6060 </r>
       <r>    46.9964     0.6940     4.6957 </r>
       <r>    47.1257     0.7474     4.7924 </r>
       <r>    47.2551     0.0583     4.8000 </r>
       <r>    47.3845     0.0002     4.8000 </r>
       <r>    47.5138     0.0000     4.8000 </r>
       <r>    47.6432     0.0000     4.8000 </r>
       <r>    47.7725     0.0000     4.8000 </r>
       <r>    47.9019     0.0000     4.8000 </r>
       <r>    48.0312     0.0000     4.8000 </r>
       <r>    48.1606     0.0000     4.8000 </r>
       <r>    48.2899     0.0000     4.8000 </r>
       <r>    48.4193     0.0000     4.8000 </r>
       <r>    48.5487     0.0000     4.8000 </r>
       <r>    48.6780     0.0000     4.8000 </r>
       <r>    48.8074     0.0000     4.8000 </r>
       <r>    48.9367     0.0000     4.8000 </r>
       <r>    49.0661     0.0000     4.8000 </r>
       <r>    49.1954     0.0000     4.8000 </r>
       <r>    49.3248     0.0000     4.8000 </r>
       <r>    49.4542     0.0000     4.8000 </r>
       <r>    49.5835     0.0000     4.8000 </r>
       <r>    49.7129     0.0000     4.8000 </r>
       <r>    49.8422     0.0000     4.8000 </r>
       <r>    49.9716     0.0000     4.8000 </r>
       <r>    50.1009     0.0000     4.8000 </r>
       <r>    50.2303     0.0000     4.8000 </r>
       <r>    50.3596     0.0000     4.8000 </r>
       <r>    50.4890     0.0000     4.8000 </r>
       <r>    50.6184     0.0000     4.8000 </r>
       <r>    50.7477     0.0000     4.8000 </r>
       <r>    50.8771     0.0000     4.8000 </r>
       <r>    51.0064     0.0003     4.8000 </r>
       <r>    51.1358     0.0649     4.8084 </r>
       <r>    51.2651     0.7715     4.9082 </r>
       <r>    51.3945     0.6682     4.9947 </r>
       <r>    51.5239     0.0410     5.0000 </r>
       <r>    51.6532     0.0001     5.0000 </r>
       <r>    51.7826     0.0000     5.0000 </r>
       <r>    51.9119     0.0000     5.0000 </r>
       <r>    52.0413     0.0000     5.0000 </r>
       <r>    52.1706     0.0000     5.0000 </r>
       <r>    52.3000     0.0000     5.0000 </r>
       <r>    52.4293     0.0000     5.0000 </r>
       <r>    52.5587     0.0000     5.0000 </r>
       <r>    52.6881     0.0000     5.0000 </r>
       <r>    52.8174     0.0000     5.0000 </r>
       <r>    52.9468     0.0000     5.0000 </r>
       <r>    53.0761     0.0000     5.0000 </r>
       <r>    53.2055     0.0000     5.0000 </r>
       <r>    53.3348     0.0000     5.0000 </r>
       <r>    53.4642     0.0000     5.0000 </r>
       <r>    53.5936     0.0000     5.0000 </r>
       <r>    53.7229     0.0000     5.0000 </r>
       <r>    53.8523     0.0000     5.0000 </r>
       <r>    53.9816     0.0000     5.0000 </r>
       <r>    54.1110     0.0000     5.0000 </r>
       <r>    54.2403     0.0000     5.0000 </r>
       <r>    54.3697     0.0000     5.0000 </r>
       <r>    54.4991     0.0000     5.0000 </r>
       <r>    54.6284     0.0000     5.0000 </r>
       <r>    54.7578     0.0000     5.0000 </r>
       <r>    54.8871     0.0000     5.0000 </r>
       <r>    55.0165     0.0000     5.0000 </r>
       <r>    55.1458     0.0000     5.0000 </r>
       <r>    55.2752     0.0000     5.0000 </r>
       <r>    55.4045     0.0200     5.0026 </r>
       <r>    55.5339     0.5141     5.0691 </r>
       <r>    55.6633     0.8943     5.1848 </r>
       <r>    55.7926     0.1168     5.1999 </r>
       <r>    55.9220     0.0009     5.2000 </r>
       <r>    56.0513     0.0000     5.2000 </r>
       <r>    56.1807     0.0000     5.2000 </r>
       <r>    56.3100     0.0000     5.2000 </r>
       <r>    56.4394     0.0000     5.2000 </r>
       <r>    56.5688     0.0000     5.2000 </r>
       <r>    56.6981     0.0000     5.2000 </r>
       <r>    56.8275     0.0000     5.2000 </r>
       <r>    56.9568     0.0000     5.2000 </r>
       <r>    57.0862     0.0000     5.2000 </r>
       <r>    57.2155     0.0000     5.2000 </r>
       <r>    57.3449     0.0000     5.2000 </r>
       <r>    57.4742     0.0000     5.2000 </r>
       <r>    57.6036     0.0000     5.2000 </r>
       <r>    57.7330     0.0000     5.2000 </r>
       <r>    57.8623     0.0000     5.2000 </r>
       <r>    57.9917     0.0000     5.2000 </r>
       <r>    58.1210     0.0000     5.2000 </r>
       <r>    58.2504     0.0000     5.2000 </r>
       <r>    58.3797     0.0000     5.2000 </r>
       <r>    58.5091     0.0000     5.2000 </r>
       <r>    58.6385     0.0000     5.2000 </r>
       <r>    58.7678     0.0000     5.2000 </r>
       <r>    58.8972     0.0000     5.2000 </r>
       <r>    59.0265     0.0000     5.2000 </r>
       <r>    59.1559     0.0000     5.2000 </r>
       <r>    59.2852     0.0000     5.2000 </r>
       <r>    59.4146     0.0000     5.2000 </r>
       <r>    59.5440     0.0137     5.2018 </r>
       <r>    59.6733     0.4410     5.2588 </r>
       <r>    59.8027     0.9385     5.3802 </r>
       <r>    59.9320     0.1515     5.3998 </r>
       <r>    60.0614     0.0014     5.4000 </r>
       <r>    60.1907     0.0000     5.4000 </r>
       <r>    60.3201     0.0000     5.4000 </r>
       <r>    60.4494     0.0000     5.4000 </r>
       <r>    60.5788     0.0000     5.4000 </r>
       <r>    60.7082     0.0000     5.4000 </r>
       <r>    60.8375     0.0000     5.4000 </r>
       <r>    60.9669     0.0000     5.4000 </r>
       <r>    61.0962     0.0000     5.4000 </r>
       <r>    61.2256     0.0000     5.4000 </r>
       <r>    61.3549     0.0000     5.4000 </r>
       <r>    61.4843     0.0000     5.4000 </r>
       <r>    61.6137     0.0000     5.4000 </r>
       <r>    61.7430     0.0000     5.4000 </r>
       <r>    61.8724     0.0000     5.4000 </r>
       <r>    62.0017     0.0000     5.4000 </r>
       <r>    62.1311     0.0000     5.4000 </r>
       <r>    62.2604     0.0000     5.4000 </r>
       <r>    62.3898     0.0000     5.4000 </r>
       <r>    62.5191     0.0000     5.4000 </r>
       <r>    62.6485     0.0000     5.4000 </r>
       <r>    62.7779     0.0000     5.4000 </r>
       <r>    62.9072     0.0000     5.4000 </r>
       <r>    63.0366     0.0002     5.4000 </r>
       <r>    63.1659     0.0486     5.4063 </r>
       <r>    63.2953     0.7060     5.4976 </r>
       <r>    63.4246     0.7357     5.5928 </r>
       <r>    63.5540     0.0554     5.6000 </r>
       <r>    63.6834     0.0002     5.6000 </r>
       <r>    63.8127     0.0000     5.6000 </r>
       <r>    63.9421     0.0000     5.6000 </r>
       <r>    64.0714     0.0000     5.6000 </r>
       <r>    64.2008     0.0000     5.6000 </r>
       <r>    64.3301     0.0000     5.6000 </r>
       <r>    64.4595     0.0000     5.6000 </r>
       <r>    64.5888     0.0000     5.6000 </r>
       <r>    64.7182     0.0000     5.6000 </r>
       <r>    64.8476     0.0000     5.6000 </r>
       <r>    64.9769     0.0000     5.6000 </r>
       <r>    65.1063     0.0000     5.6000 </r>
       <r>    65.2356     0.0000     5.6000 </r>
       <r>    65.3650     0.0000     5.6000 </r>
       <r>    65.4943     0.0070     5.6009 </r>
       <r>    65.6237     0.3285     5.6434 </r>
       <r>    65.7531     0.9825     5.7705 </r>
       <r>    65.8824     0.2251     5.7996 </r>
       <r>    66.0118     0.0031     5.8000 </r>
       <r>    66.1411     0.0000     5.8000 </r>
       <r>    66.2705     0.0011     5.8001 </r>
       <r>    66.3998     0.1318     5.8172 </r>
       <r>    66.5292     0.9268     5.9371 </r>
       <r>    66.6586     0.9041     6.0540 </r>
       <r>    66.7879     1.0220     6.1862 </r>
       <r>    66.9173     0.6123     6.2654 </r>
       <r>    67.0466     0.2576     6.2988 </r>
       <r>    67.1760     0.0572     6.3062 </r>
       <r>    67.3053     0.4267     6.3614 </r>
       <r>    67.4347     0.3188     6.4026 </r>
       <r>    67.5640     0.4014     6.4545 </r>
       <r>    67.6934     0.3349     6.4978 </r>
       <r>    67.8228     0.2522     6.5305 </r>
       <r>    67.9521     1.1629     6.6809 </r>
       <r>    68.0815     0.8182     6.7867 </r>
       <r>    68.2108     0.1016     6.7999 </r>
       <r>    68.3402     0.0011     6.8000 </r>
       <r>    68.4695     0.0023     6.8003 </r>
       <r>    68.5989     0.1371     6.8180 </r>
       <r>    68.7283     0.4945     6.8820 </r>
       <r>    68.8576     0.1370     6.8997 </r>
       <r>    68.9870     0.0341     6.9041 </r>
       <r>    69.1163     0.3833     6.9537 </r>
       <r>    69.2457     0.3368     6.9973 </r>
       <r>    69.3750     0.0210     7.0000 </r>
       <r>    69.5044     0.0003     7.0000 </r>
       <r>    69.6337     0.0440     7.0057 </r>
       <r>    69.7631     0.4189     7.0599 </r>
       <r>    69.8925     0.3001     7.0987 </r>
       <r>    70.0218     0.2014     7.1248 </r>
       <r>    70.1512     0.4845     7.1875 </r>
       <r>    70.2805     0.0959     7.1999 </r>
       <r>    70.4099     0.0013     7.2000 </r>
       <r>    70.5392     0.0353     7.2046 </r>
       <r>    70.6686     0.4034     7.2568 </r>
       <r>    70.7980     0.6430     7.3399 </r>
       <r>    70.9273     0.9672     7.4651 </r>
       <r>    71.0567     0.4947     7.5290 </r>
       <r>    71.1860     0.9889     7.6570 </r>
       <r>    71.3154     0.3258     7.6991 </r>
       <r>    71.4447     0.0068     7.7000 </r>
       <r>    71.5741     0.0000     7.7000 </r>
       <r>    71.7035     0.0083     7.7011 </r>
       <r>    71.8328     0.2388     7.7320 </r>
       <r>    71.9622     0.4588     7.7913 </r>
       <r>    72.0915     0.0665     7.7999 </r>
       <r>    72.2209     0.0005     7.8000 </r>
       <r>    72.3502     0.0000     7.8000 </r>
       <r>    72.4796     0.0000     7.8000 </r>
       <r>    72.6089     0.0000     7.8000 </r>
       <r>    72.7383     0.0000     7.8000 </r>
       <r>    72.8677     0.0027     7.8004 </r>
       <r>    72.9970     0.1472     7.8194 </r>
       <r>    73.1264     0.5770     7.8940 </r>
       <r>    73.2557     0.8953     8.0098 </r>
       <r>    73.3851     0.6486     8.0938 </r>
       <r>    73.5144     0.0481     8.1000 </r>
       <r>    73.6438     0.0002     8.1000 </r>
       <r>    73.7732     0.0000     8.1000 </r>
       <r>    73.9025     0.0000     8.1000 </r>
       <r>    74.0319     0.0000     8.1000 </r>
       <r>    74.1612     0.0015     8.1002 </r>
       <r>    74.2906     0.1117     8.1146 </r>
       <r>    74.4199     0.4910     8.1782 </r>
       <r>    74.5493     0.1653     8.1995 </r>
       <r>    74.6786     0.0035     8.2000 </r>
       <r>    74.8080     0.0000     8.2000 </r>
       <r>    74.9374     0.0000     8.2000 </r>
       <r>    75.0667     0.0000     8.2000 </r>
       <r>    75.1961     0.0000     8.2000 </r>
       <r>    75.3254     0.0000     8.2000 </r>
       <r>    75.4548     0.0091     8.2012 </r>
       <r>    75.5841     0.2472     8.2332 </r>
       <r>    75.7135     0.4582     8.2924 </r>
       <r>    75.8429     0.2493     8.3247 </r>
       <r>    75.9722     0.4851     8.3874 </r>
       <r>    76.1016     0.0961     8.3999 </r>
       <r>    76.2309     0.0011     8.4000 </r>
       <r>    76.3603     0.0000     8.4000 </r>
       <r>    76.4896     0.0000     8.4000 </r>
       <r>    76.6190     0.0000     8.4000 </r>
       <r>    76.7483     0.0000     8.4000 </r>
       <r>    76.8777     0.0000     8.4000 </r>
       <r>    77.0071     0.0000     8.4000 </r>
       <r>    77.1364     0.0014     8.4002 </r>
       <r>    77.2658     0.1075     8.4141 </r>
       <r>    77.3951     0.4896     8.4774 </r>
       <r>    77.5245     0.1707     8.4995 </r>
       <r>    77.6538     0.0038     8.5000 </r>
       <r>    77.7832     0.0000     8.5000 </r>
       <r>    77.9126     0.0000     8.5000 </r>
       <r>    78.0419     0.0000     8.5000 </r>
       <r>    78.1713     0.0000     8.5000 </r>
       <r>    78.3006     0.0000     8.5000 </r>
       <r>    78.4300     0.0000     8.5000 </r>
       <r>    78.5593     0.0000     8.5000 </r>
       <r>    78.6887     0.0000     8.5000 </r>
       <r>    78.8181     0.0000     8.5000 </r>
       <r>    78.9474     0.0000     8.5000 </r>
       <r>    79.0768     0.0000     8.5000 </r>
       <r>    79.2061     0.0000     8.5000 </r>
       <r>    79.3355     0.0000     8.5000 </r>
       <r>    79.4648     0.0000     8.5000 </r>
       <r>    79.5942     0.0000     8.5000 </r>
       <r>    79.7235     0.0000     8.5000 </r>
       <r>    79.8529     0.0000     8.5000 </r>
       <r>    79.9823     0.0000     8.5000 </r>
       <r>    80.1116     0.0000     8.5000 </r>
       <r>    80.2410     0.0000     8.5000 </r>
       <r>    80.3703     0.0000     8.5000 </r>
       <r>    80.4997     0.0000     8.5000 </r>
       <r>    80.6290     0.0000     8.5000 </r>
       <r>    80.7584     0.0000     8.5000 </r>
       <r>    80.8878     0.0000     8.5000 </r>
       <r>    81.0171     0.0000     8.5000 </r>
       <r>    81.1465     0.0000     8.5000 </r>
       <r>    81.2758     0.0000     8.5000 </r>
       <r>    81.4052     0.0025     8.5003 </r>
       <r>    81.5345     0.1411     8.5186 </r>
       <r>    81.6639     0.5181     8.5856 </r>
       <r>    81.7932     0.4835     8.6481 </r>
       <r>    81.9226     0.3725     8.6963 </r>
       <r>    82.0520     0.0283     8.7000 </r>
       <r>    82.1813     0.0001     8.7000 </r>
       <r>    82.3107     0.0000     8.7000 </r>
       <r>    82.4400     0.0105     8.7014 </r>
       <r>    82.5694     0.2618     8.7352 </r>
       <r>    82.6987     0.4469     8.7930 </r>
       <r>    82.8281     0.2097     8.8202 </r>
       <r>    82.9575     0.4942     8.8841 </r>
       <r>    83.0868     0.1888     8.9085 </r>
       <r>    83.2162     0.4614     8.9682 </r>
       <r>    83.3455     0.2376     8.9989 </r>
       <r>    83.4749     0.0082     9.0000 </r>
       <r>    83.6042     0.0000     9.0000 </r>
       <r>    83.7336     0.0000     9.0000 </r>
       <r>    83.8630     0.0000     9.0000 </r>
       <r>    83.9923     0.0000     9.0000 </r>
       <r>    84.1217     0.0000     9.0000 </r>
       <r>    84.2510     0.0000     9.0000 </r>
       <r>    84.3804     0.0000     9.0000 </r>
       <r>    84.5097     0.0000     9.0000 </r>
       <r>    84.6391     0.0000     9.0000 </r>
       <r>    84.7684     0.0000     9.0000 </r>
       <r>    84.8978     0.0000     9.0000 </r>
       <r>    85.0272     0.0000     9.0000 </r>
       <r>    85.1565     0.0000     9.0000 </r>
       <r>    85.2859     0.0000     9.0000 </r>
       <r>    85.4152     0.0000     9.0000 </r>
       <r>    85.5446     0.0000     9.0000 </r>
       <r>    85.6739     0.0000     9.0000 </r>
       <r>    85.8033     0.0000     9.0000 </r>
       <r>    85.9327     0.0000     9.0000 </r>
       <r>    86.0620     0.0153     9.0020 </r>
       <r>    86.1914     0.3016     9.0410 </r>
       <r>    86.3207     0.4139     9.0945 </r>
       <r>    86.4501     0.0420     9.1000 </r>
       <r>    86.5794     0.0002     9.1000 </r>
       <r>    86.7088     0.0000     9.1000 </r>
       <r>    86.8381     0.0000     9.1000 </r>
       <r>    86.9675     0.0000     9.1000 </r>
       <r>    87.0969     0.0000     9.1000 </r>
       <r>    87.2262     0.0000     9.1000 </r>
       <r>    87.3556     0.0000     9.1000 </r>
       <r>    87.4849     0.0000     9.1000 </r>
       <r>    87.6143     0.0169     9.1022 </r>
       <r>    87.7436     0.3125     9.1426 </r>
       <r>    87.8730     0.4140     9.1962 </r>
       <r>    88.0024     0.2871     9.2333 </r>
       <r>    88.1317     0.4530     9.2919 </r>
       <r>    88.2611     0.0621     9.2999 </r>
       <r>    88.3904     0.0005     9.3000 </r>
       <r>    88.5198     0.0000     9.3000 </r>
       <r>    88.6491     0.0000     9.3000 </r>
       <r>    88.7785     0.0000     9.3000 </r>
       <r>    88.9079     0.0000     9.3000 </r>
       <r>    89.0372     0.0000     9.3000 </r>
       <r>    89.1666     0.0000     9.3000 </r>
       <r>    89.2959     0.0000     9.3000 </r>
       <r>    89.4253     0.0000     9.3000 </r>
       <r>    89.5546     0.0000     9.3000 </r>
       <r>    89.6840     0.0000     9.3000 </r>
       <r>    89.8133     0.0000     9.3000 </r>
       <r>    89.9427     0.0000     9.3000 </r>
       <r>    90.0721     0.0000     9.3000 </r>
       <r>    90.2014     0.0000     9.3000 </r>
       <r>    90.3308     0.0000     9.3000 </r>
       <r>    90.4601     0.0000     9.3000 </r>
       <r>    90.5895     0.0007     9.3001 </r>
       <r>    90.7188     0.0752     9.3098 </r>
       <r>    90.8482     0.4687     9.3704 </r>
       <r>    90.9776     0.2262     9.3997 </r>
       <r>    91.1069     0.1932     9.4247 </r>
       <r>    91.2363     0.4852     9.4875 </r>
       <r>    91.3656     0.1576     9.5078 </r>
       <r>    91.4950     0.4527     9.5664 </r>
       <r>    91.6243     0.2566     9.5996 </r>
       <r>    91.7537     0.2195     9.6280 </r>
       <r>    91.8830     0.4745     9.6894 </r>
       <r>    92.0124     0.0815     9.6999 </r>
       <r>    92.1418     0.0008     9.7000 </r>
       <r>    92.2711     0.0000     9.7000 </r>
       <r>    92.4005     0.0104     9.7013 </r>
       <r>    92.5298     0.2610     9.7351 </r>
       <r>    92.6592     0.4444     9.7926 </r>
       <r>    92.7885     0.0567     9.7999 </r>
       <r>    92.9179     0.0004     9.8000 </r>
       <r>    93.0473     0.0000     9.8000 </r>
       <r>    93.1766     0.0000     9.8000 </r>
       <r>    93.3060     0.0000     9.8000 </r>
       <r>    93.4353     0.0000     9.8000 </r>
       <r>    93.5647     0.0000     9.8000 </r>
       <r>    93.6940     0.0000     9.8000 </r>
       <r>    93.8234     0.0000     9.8000 </r>
       <r>    93.9527     0.0000     9.8000 </r>
       <r>    94.0821     0.0000     9.8000 </r>
       <r>    94.2115     0.0000     9.8000 </r>
       <r>    94.3408     0.0000     9.8000 </r>
       <r>    94.4702     0.0006     9.8001 </r>
       <r>    94.5995     0.0711     9.8093 </r>
       <r>    94.7289     0.4643     9.8693 </r>
       <r>    94.8582     0.2295     9.8990 </r>
       <r>    94.9876     0.0075     9.9000 </r>
       <r>    95.1170     0.0000     9.9000 </r>
       <r>    95.2463     0.0068     9.9009 </r>
       <r>    95.3757     0.2223     9.9296 </r>
       <r>    95.5050     0.5926    10.0063 </r>
       <r>    95.6344     0.5693    10.0799 </r>
       <r>    95.7637     0.1522    10.0996 </r>
       <r>    95.8931     0.0029    10.1000 </r>
       <r>    96.0225     0.0000    10.1000 </r>
       <r>    96.1518     0.0000    10.1000 </r>
       <r>    96.2812     0.0000    10.1000 </r>
       <r>    96.4105     0.0000    10.1000 </r>
       <r>    96.5399     0.0000    10.1000 </r>
       <r>    96.6692     0.0000    10.1000 </r>
       <r>    96.7986     0.0000    10.1000 </r>
       <r>    96.9279     0.0000    10.1000 </r>
       <r>    97.0573     0.0000    10.1000 </r>
       <r>    97.1867     0.0000    10.1000 </r>
       <r>    97.3160     0.0000    10.1000 </r>
       <r>    97.4454     0.0000    10.1000 </r>
       <r>    97.5747     0.0000    10.1000 </r>
       <r>    97.7041     0.0000    10.1000 </r>
       <r>    97.8334     0.0000    10.1000 </r>
       <r>    97.9628     0.0000    10.1000 </r>
       <r>    98.0922     0.0000    10.1000 </r>
       <r>    98.2215     0.0002    10.1000 </r>
       <r>    98.3509     0.0363    10.1047 </r>
       <r>    98.4802     0.5520    10.1761 </r>
       <r>    98.6096     0.8240    10.2827 </r>
       <r>    98.7389     0.1321    10.2998 </r>
       <r>    98.8683     0.0016    10.3000 </r>
       <r>    98.9976     0.0000    10.3000 </r>
       <r>    99.1270     0.0000    10.3000 </r>
       <r>    99.2564     0.0000    10.3000 </r>
       <r>    99.3857     0.0000    10.3000 </r>
       <r>    99.5151     0.0000    10.3000 </r>
       <r>    99.6444     0.0000    10.3000 </r>
       <r>    99.7738     0.0000    10.3000 </r>
       <r>    99.9031     0.0000    10.3000 </r>
       <r>   100.0325     0.0000    10.3000 </r>
       <r>   100.1619     0.0000    10.3000 </r>
       <r>   100.2912     0.0000    10.3000 </r>
       <r>   100.4206     0.0000    10.3000 </r>
       <r>   100.5499     0.0000    10.3000 </r>
       <r>   100.6793     0.0000    10.3000 </r>
       <r>   100.8086     0.0000    10.3000 </r>
       <r>   100.9380     0.0000    10.3000 </r>
       <r>   101.0674     0.0000    10.3000 </r>
       <r>   101.1967     0.0000    10.3000 </r>
       <r>   101.3261     0.0000    10.3000 </r>
       <r>   101.4554     0.0000    10.3000 </r>
       <r>   101.5848     0.0000    10.3000 </r>
       <r>   101.7141     0.0000    10.3000 </r>
       <r>   101.8435     0.0000    10.3000 </r>
       <r>   101.9728     0.0000    10.3000 </r>
       <r>   102.1022     0.0000    10.3000 </r>
       <r>   102.2316     0.0000    10.3000 </r>
       <r>   102.3609     0.0000    10.3000 </r>
       <r>   102.4903     0.0000    10.3000 </r>
       <r>   102.6196     0.0000    10.3000 </r>
       <r>   102.7490     0.0000    10.3000 </r>
       <r>   102.8783     0.0000    10.3000 </r>
       <r>   103.0077     0.0001    10.3000 </r>
       <r>   103.1371     0.0311    10.3040 </r>
       <r>   103.2664     0.3832    10.3536 </r>
       <r>   103.3958     0.4884    10.4168 </r>
       <r>   103.5251     0.8237    10.5233 </r>
       <r>   103.6545     0.5500    10.5945 </r>
       <r>   103.7838     0.0425    10.6000 </r>
       <r>   103.9132     0.0002    10.6000 </r>
       <r>   104.0425     0.0000    10.6000 </r>
       <r>   104.1719     0.0000    10.6000 </r>
       <r>   104.3013     0.0000    10.6000 </r>
       <r>   104.4306     0.0000    10.6000 </r>
       <r>   104.5600     0.0000    10.6000 </r>
       <r>   104.6893     0.0000    10.6000 </r>
       <r>   104.8187     0.0000    10.6000 </r>
       <r>   104.9480     0.0000    10.6000 </r>
       <r>   105.0774     0.0006    10.6001 </r>
       <r>   105.2068     0.0694    10.6091 </r>
       <r>   105.3361     0.4624    10.6689 </r>
       <r>   105.4655     0.2328    10.6990 </r>
       <r>   105.5948     0.0078    10.7000 </r>
       <r>   105.7242     0.0003    10.7000 </r>
       <r>   105.8535     0.0426    10.7055 </r>
       <r>   105.9829     0.4154    10.7593 </r>
       <r>   106.1122     0.2998    10.7980 </r>
       <r>   106.2416     0.0150    10.8000 </r>
       <r>   106.3710     0.0000    10.8000 </r>
       <r>   106.5003     0.0000    10.8000 </r>
       <r>   106.6297     0.0000    10.8000 </r>
       <r>   106.7590     0.0000    10.8000 </r>
       <r>   106.8884     0.0000    10.8000 </r>
       <r>   107.0177     0.0000    10.8000 </r>
       <r>   107.1471     0.0020    10.8003 </r>
       <r>   107.2765     0.1268    10.8167 </r>
       <r>   107.4058     0.4940    10.8806 </r>
       <r>   107.5352     0.1476    10.8996 </r>
       <r>   107.6645     0.0028    10.9000 </r>
       <r>   107.7939     0.0000    10.9000 </r>
       <r>   107.9232     0.0000    10.9000 </r>
       <r>   108.0526     0.0000    10.9000 </r>
       <r>   108.1820     0.0000    10.9000 </r>
       <r>   108.3113     0.0000    10.9000 </r>
       <r>   108.4407     0.0000    10.9000 </r>
       <r>   108.5700     0.0000    10.9000 </r>
       <r>   108.6994     0.0000    10.9000 </r>
       <r>   108.8287     0.0000    10.9000 </r>
       <r>   108.9581     0.0000    10.9000 </r>
       <r>   109.0874     0.0000    10.9000 </r>
       <r>   109.2168     0.0000    10.9000 </r>
       <r>   109.3462     0.0000    10.9000 </r>
       <r>   109.4755     0.0000    10.9000 </r>
       <r>   109.6049     0.0000    10.9000 </r>
       <r>   109.7342     0.0000    10.9000 </r>
       <r>   109.8636     0.0000    10.9000 </r>
       <r>   109.9929     0.0000    10.9000 </r>
       <r>   110.1223     0.0000    10.9000 </r>
       <r>   110.2517     0.0013    10.9002 </r>
       <r>   110.3810     0.1041    10.9136 </r>
       <r>   110.5104     0.4884    10.9768 </r>
       <r>   110.6397     0.1753    10.9995 </r>
       <r>   110.7691     0.0040    11.0000 </r>
       <r>   110.8984     0.0000    11.0000 </r>
       <r>   111.0278     0.0000    11.0000 </r>
       <r>   111.1571     0.0000    11.0000 </r>
       <r>   111.2865     0.0000    11.0000 </r>
       <r>   111.4159     0.0000    11.0000 </r>
       <r>   111.5452     0.0000    11.0000 </r>
       <r>   111.6746     0.0000    11.0000 </r>
       <r>   111.8039     0.0000    11.0000 </r>
       <r>   111.9333     0.0000    11.0000 </r>
       <r>   112.0626     0.0000    11.0000 </r>
       <r>   112.1920     0.0000    11.0000 </r>
       <r>   112.3214     0.0000    11.0000 </r>
       <r>   112.4507     0.0000    11.0000 </r>
       <r>   112.5801     0.0000    11.0000 </r>
       <r>   112.7094     0.0000    11.0000 </r>
       <r>   112.8388     0.0000    11.0000 </r>
       <r>   112.9681     0.0000    11.0000 </r>
       <r>   113.0975     0.0000    11.0000 </r>
       <r>   113.2269     0.0000    11.0000 </r>
       <r>   113.3562     0.0000    11.0000 </r>
       <r>   113.4856     0.0000    11.0000 </r>
       <r>   113.6149     0.0000    11.0000 </r>
       <r>   113.7443     0.0000    11.0000 </r>
       <r>   113.8736     0.0000    11.0000 </r>
       <r>   114.0030     0.0000    11.0000 </r>
       <r>   114.1323     0.0000    11.0000 </r>
       <r>   114.2617     0.0000    11.0000 </r>
       <r>   114.3911     0.0002    11.0000 </r>
       <r>   114.5204     0.0427    11.0055 </r>
       <r>   114.6498     0.4156    11.0593 </r>
       <r>   114.7791     0.2995    11.0981 </r>
       <r>   114.9085     0.0150    11.1000 </r>
       <r>   115.0378     0.0000    11.1000 </r>
       <r>   115.1672     0.0000    11.1000 </r>
       <r>   115.2966     0.0000    11.1000 </r>
       <r>   115.4259     0.0000    11.1000 </r>
       <r>   115.5553     0.0000    11.1000 </r>
       <r>   115.6846     0.0000    11.1000 </r>
       <r>   115.8140     0.0000    11.1000 </r>
       <r>   115.9433     0.0000    11.1000 </r>
       <r>   116.0727     0.0126    11.1016 </r>
       <r>   116.2020     0.2805    11.1379 </r>
       <r>   116.3314     0.4305    11.1936 </r>
       <r>   116.4608     0.0492    11.2000 </r>
       <r>   116.5901     0.0003    11.2000 </r>
       <r>   116.7195     0.0000    11.2000 </r>
       <r>   116.8488     0.0000    11.2000 </r>
       <r>   116.9782     0.0000    11.2000 </r>
       <r>   117.1075     0.0000    11.2000 </r>
       <r>   117.2369     0.0000    11.2000 </r>
       <r>   117.3663     0.0000    11.2000 </r>
       <r>   117.4956     0.0000    11.2000 </r>
       <r>   117.6250     0.0000    11.2000 </r>
       <r>   117.7543     0.0000    11.2000 </r>
       <r>   117.8837     0.0000    11.2000 </r>
       <r>   118.0130     0.0000    11.2000 </r>
       <r>   118.1424     0.0000    11.2000 </r>
       <r>   118.2717     0.0000    11.2000 </r>
       <r>   118.4011     0.0001    11.2000 </r>
       <r>   118.5305     0.0241    11.2031 </r>
       <r>   118.6598     0.3529    11.2488 </r>
       <r>   118.7892     0.4269    11.3040 </r>
       <r>   118.9185     0.4750    11.3654 </r>
       <r>   119.0479     0.2571    11.3987 </r>
       <r>   119.1772     0.0101    11.4000 </r>
       <r>   119.3066     0.0247    11.4032 </r>
       <r>   119.4360     0.3551    11.4491 </r>
       <r>   119.5653     0.3659    11.4965 </r>
       <r>   119.6947     0.0333    11.5008 </r>
       <r>   119.8240     0.2101    11.5280 </r>
       <r>   119.9534     0.4746    11.5893 </r>
       <r>   120.0827     0.0816    11.5999 </r>
       <r>   120.2121     0.0008    11.6000 </r>
       <r>   120.3415     0.0000    11.6000 </r>
       <r>   120.4708     0.0000    11.6000 </r>
       <r>   120.6002     0.0000    11.6000 </r>
       <r>   120.7295     0.0000    11.6000 </r>
       <r>   120.8589     0.0000    11.6000 </r>
       <r>   120.9882     0.0000    11.6000 </r>
       <r>   121.1176     0.0000    11.6000 </r>
       <r>   121.2469     0.0000    11.6000 </r>
       <r>   121.3763     0.0000    11.6000 </r>
       <r>   121.5057     0.0000    11.6000 </r>
       <r>   121.6350     0.0000    11.6000 </r>
       <r>   121.7644     0.0000    11.6000 </r>
       <r>   121.8937     0.0000    11.6000 </r>
       <r>   122.0231     0.0000    11.6000 </r>
       <r>   122.1524     0.0000    11.6000 </r>
       <r>   122.2818     0.0000    11.6000 </r>
       <r>   122.4112     0.0000    11.6000 </r>
       <r>   122.5405     0.0000    11.6000 </r>
       <r>   122.6699     0.0000    11.6000 </r>
       <r>   122.7992     0.0000    11.6000 </r>
       <r>   122.9286     0.0000    11.6000 </r>
       <r>   123.0579     0.0000    11.6000 </r>
       <r>   123.1873     0.0000    11.6000 </r>
       <r>   123.3166     0.0000    11.6000 </r>
       <r>   123.4460     0.0000    11.6000 </r>
       <r>   123.5754     0.0000    11.6000 </r>
       <r>   123.7047     0.0000    11.6000 </r>
       <r>   123.8341     0.0000    11.6000 </r>
       <r>   123.9634     0.0015    11.6002 </r>
       <r>   124.0928     0.1119    11.6147 </r>
       <r>   124.2221     0.4911    11.6782 </r>
[...]
        <r>  0.0173  0.0293  0.0358  0.0161  0.0000  0.0000  0.0000  0.0000  0.0000 </r>
       </set>
       <set comment="band 7">
        <r>  0.0235  0.1175  0.3532  0.9577  0.0000  0.0000  0.0000  0.0000  0.0000 </r>
       </set>
       <set comment="band 8">
        <r>  0.1172  0.1595  0.0446  0.3377  0.0000  0.0000  0.0000  0.0000  0.0000 </r>
       </set>
      </set>
      <set comment="kpoint 4">
       <set comment="band 1">
        <r>  0.4760  0.0014  0.0000  0.0174  0.0000  0.0000  0.0000  0.0000  0.0000 </r>
       </set>
       <set comment="band 2">
        <r>  0.0943  0.0002  0.0000  0.1721  0.0000  0.0000  0.0000  0.0000  0.0000 </r>
       </set>
       <set comment="band 3">
        <r>  0.2341  0.3087  0.0000  0.0395  0.0000  0.0000  0.0000  0.0000  0.0000 </r>
       </set>
       <set comment="band 4">
        <r>  0.1325  0.1212  0.0012  0.0042  0.0000  0.0000  0.0000  0.0000  0.0000 </r>
       </set>
       <set comment="band 5">
        <r>  0.0114  0.4496  0.1469  0.0541  0.0000  0.0000  0.0000  0.0000  0.0000 </r>
       </set>
       <set comment="band 6">
        <r>  0.0015  0.0854  0.5511  0.0671  0.0000  0.0000  0.0000  0.0000  0.0000 </r>
       </set>
       <set comment="band 7">
        <r>  0.0007  0.0062  0.2761  0.0247  0.0000  0.0000  0.0000  0.0000  0.0000 </r>
       </set>
       <set comment="band 8">
        <r>  0.1343  0.1358  0.0510  0.4971  0.0000  0.0000  0.0000  0.0000  0.0000 </r>
       </set>
      </set>
      <set comment="kpoint 5">
       <set comment="band 1">
        <r>  0.4518  0.0026  0.0000  0.0196  0.0000  0.0000  0.0000  0.0000  0.0000 </r>
       </set>
       <set comment="band 2">
        <r>  0.1197  0.0005  0.0000  0.1744  0.0000  0.0000  0.0000  0.0000  0.0000 </r>
       </set>
       <set comment="band 3">
        <r>  0.1841  0.3303  0.0000  0.0429  0.0000  0.0000  0.0000  0.0000  0.0000 </r>
       </set>
       <set comment="band 4">
        <r>  0.1496  0.1023  0.0160  0.0099  0.0000  0.0000  0.0000  0.0000  0.0000 </r>
       </set>
       <set comment="band 5">
        <r>  0.0485  0.3580  0.1111  0.1063  0.0000  0.0000  0.0000  0.0000  0.0000 </r>
       </set>
       <set comment="band 6">
        <r>  0.0088  0.0567  0.3640  0.2001  0.0000  0.0000  0.0000  0.0000  0.0000 </r>
       </set>
       <set comment="band 7">
        <r>  0.0656  0.7386  0.0445  0.2026  0.0000  0.0000  0.0000  0.0000  0.0000 </r>
       </set>
       <set comment="band 8">
        <r>  0.0863  0.0562  0.0635  0.2235  0.0000  0.0000  0.0000  0.0000  0.0000 </r>
       </set>
      </set>
      <set comment="kpoint 6">
       <set comment="band 1">
        <r>  0.4356  0.0042  0.0000  0.0196  0.0000  0.0000  0.0000  0.0000  0.0000 </r>
       </set>
       <set comment="band 2">
        <r>  0.1382  0.0009  0.0000  0.1797  0.0000  0.0000  0.0000  0.0000  0.0000 </r>
       </set>
       <set comment="band 3">
        <r>  0.1539  0.3215  0.0000  0.0441  0.0000  0.0000  0.0000  0.0000  0.0000 </r>
       </set>
       <set comment="band 4">
        <r>  0.1542  0.0211  0.1164  0.0002  0.0000  0.0000  0.0000  0.0000  0.0000 </r>
       </set>
       <set comment="band 5">
        <r>  0.0044  0.0472  0.5804  0.0016  0.0000  0.0000  0.0000  0.0000  0.0000 </r>
       </set>
       <set comment="band 6">
        <r>  0.1016  0.3268  0.0153  0.0260  0.0000  0.0000  0.0000  0.0000  0.0000 </r>
       </set>
       <set comment="band 7">
        <r>  0.0019  0.1119  0.1014  0.0657  0.0000  0.0000  0.0000  0.0000  0.0000 </r>
       </set>
       <set comment="band 8">
        <r>  0.0054  0.0598  0.0782  0.0204  0.0000  0.0000  0.0000  0.0000  0.0000 </r>
       </set>
      </set>
      <set comment="kpoint 7">
       <set comment="band 1">
        <r>  0.4251  0.0062  0.0000  0.0200  0.0000  0.0000  0.0000  0.0000  0.0000 </r>
       </set>
       <set comment="band 2">
        <r>  0.1536  0.0014  0.0000  0.1788  0.0000  0.0000  0.0000  0.0000  0.0000 </r>
       </set>
       <set comment="band 3">
        <r>  0.1321  0.3019  0.0000  0.0478  0.0000  0.0000  0.0000  0.0000  0.0000 </r>
       </set>
       <set comment="band 4">
        <r>  0.1835  0.0017  0.0008  0.0020  0.0000  0.0000  0.0000  0.0000  0.0000 </r>
       </set>
       <set comment="band 5">
        <r>  0.0000  0.0187  0.9157  0.0194  0.0000  0.0000  0.0000  0.0000  0.0000 </r>
       </set>
       <set comment="band 6">
        <r>  0.0061  0.1030  0.0544  0.3148  0.0000  0.0000  0.0000  0.0000  0.0000 </r>
       </set>
       <set comment="band 7">
        <r>  0.0742  0.1297  0.0239  0.0636  0.0000  0.0000  0.0000  0.0000  0.0000 </r>
       </set>
       <set comment="band 8">
        <r>  0.1073  0.2106  0.3081  0.0082  0.0000  0.0000  0.0000  0.0000  0.0000 </r>
       </set>
      </set>
      <set comment="kpoint 8">
       <set comment="band 1">
        <r>  0.4182  0.0075  0.0000  0.0183  0.0000  0.0000  0.0000  0.0000  0.0000 </r>
       </set>
       <set comment="band 2">
        <r>  0.1695  0.0009  0.0000  0.1840  0.0000  0.0000  0.0000  0.0000  0.0000 </r>
       </set>
       <set comment="band 3">
        <r>  0.1135  0.2989  0.0000  0.0510  0.0000  0.0000  0.0000  0.0000  0.0000 </r>
       </set>
       <set comment="band 4">
        <r>  0.1751  0.0078  0.0592  0.0021  0.0000  0.0000  0.0000  0.0000  0.0000 </r>
       </set>
       <set comment="band 5">
        <r>  0.0954  0.4839  0.0080  0.0111  0.0000  0.0000  0.0000  0.0000  0.0000 </r>
       </set>
       <set comment="band 6">
        <r>  0.0804  0.3305  0.0362  0.0451  0.0000  0.0000  0.0000  0.0000  0.0000 </r>
       </set>
       <set comment="band 7">
        <r>  0.0012  0.3719  0.2198  0.0649  0.0000  0.0000  0.0000  0.0000  0.0000 </r>
       </set>
       <set comment="band 8">
        <r>  0.0347  0.1363  0.2377  0.6060  0.0000  0.0000  0.0000  0.0000  0.0000 </r>
       </set>
      </set>
      <set comment="kpoint 9">
       <set comment="band 1">
        <r>  0.4142  0.0097  0.0000  0.0160  0.0000  0.0000  0.0000  0.0000  0.0000 </r>
       </set>
       <set comment="band 2">
        <r>  0.1943  0.0000  0.0000  0.1827  0.0000  0.0000  0.0000  0.0000  0.0000 </r>
       </set>
       <set comment="band 3">
        <r>  0.0873  0.2825  0.0000  0.0623  0.0000  0.0000  0.0000  0.0000  0.0000 </r>
       </set>
       <set comment="band 4">
        <r>  0.1414  0.0316  0.1644  0.0243  0.0000  0.0000  0.0000  0.0000  0.0000 </r>
       </set>
       <set comment="band 5">
        <r>  0.0126  0.1141  0.5022  0.1120  0.0000  0.0000  0.0000  0.0000  0.0000 </r>
       </set>
       <set comment="band 6">
        <r>  0.0725  0.2798  0.0733  0.0064  0.0000  0.0000  0.0000  0.0000  0.0000 </r>
       </set>
       <set comment="band 7">
        <r>  0.0065  0.2378  0.1275  0.0291  0.0000  0.0000  0.0000  0.0000  0.0000 </r>
       </set>
       <set comment="band 8">
        <r>  0.0524  0.4924  0.0796  0.0052  0.0000  0.0000  0.0000  0.0000  0.0000 </r>
       </set>
      </set>
      <set comment="kpoint 10">
       <set comment="band 1">
        <r>  0.4124  0.0117  0.0000  0.0141  0.0000  0.0000  0.0000  0.0000  0.0000 </r>
       </set>
       <set comment="band 2">
        <r>  0.2526  0.0124  0.0000  0.1346  0.0000  0.0000  0.0000  0.0000  0.0000 </r>
       </set>
       <set comment="band 3">
        <r>  0.0285  0.2538  0.0000  0.1175  0.0000  0.0000  0.0000  0.0000  0.0000 </r>
       </set>
       <set comment="band 4">
        <r>  0.1889  0.0021  0.0003  0.0017  0.0000  0.0000  0.0000  0.0000  0.0000 </r>
       </set>
       <set comment="band 5">
        <r>  0.0000  0.0037  0.9398  0.0037  0.0000  0.0000  0.0000  0.0000  0.0000 </r>
       </set>
       <set comment="band 6">
        <r>  0.0779  0.4559  0.2598  0.0031  0.0000  0.0000  0.0000  0.0000  0.0000 </r>
       </set>
       <set comment="band 7">
        <r>  0.0815  0.5685  0.0196  0.0644  0.0000  0.0000  0.0000  0.0000  0.0000 </r>
       </set>
       <set comment="band 8">
        <r>  0.0070  0.1092  1.0290  0.0222  0.0000  0.0000  0.0000  0.0000  0.0000 </r>
       </set>
      </set>
      <set comment="kpoint 11">
       <set comment="band 1">
        <r>  0.4124  0.0141  0.0000  0.0117  0.0000  0.0000  0.0000  0.0000  0.0000 </r>
       </set>
       <set comment="band 2">
        <r>  0.2526  0.1346  0.0000  0.0124  0.0000  0.0000  0.0000  0.0000  0.0000 </r>
       </set>
       <set comment="band 3">
        <r>  0.0285  0.1175  0.0000  0.2538  0.0000  0.0000  0.0000  0.0000  0.0000 </r>
       </set>
       <set comment="band 4">
        <r>  0.1902  0.0001  0.0003  0.0002  0.0000  0.0000  0.0000  0.0000  0.0000 </r>
       </set>
       <set comment="band 5">
        <r>  0.0000  0.0803  0.6726  0.0812  0.0000  0.0000  0.0000  0.0000  0.0000 </r>
       </set>
       <set comment="band 6">
        <r>  0.0010  0.1615  0.4363  0.2701  0.0000  0.0000  0.0000  0.0000  0.0000 </r>
       </set>
       <set comment="band 7">
        <r>  0.0584  0.2648  0.1092  0.3903  0.0000  0.0000  0.0000  0.0000  0.0000 </r>
       </set>
       <set comment="band 8">
        <r>  0.0665  0.0778  0.1491  0.0350  0.0000  0.0000  0.0000  0.0000  0.0000 </r>
       </set>
      </set>
      <set comment="kpoint 12">
       <set comment="band 1">
        <r>  0.4142  0.0160  0.0000  0.0097  0.0000  0.0000  0.0000  0.0000  0.0000 </r>
       </set>
       <set comment="band 2">
        <r>  0.1943  0.1827  0.0000  0.0000  0.0000  0.0000  0.0000  0.0000  0.0000 </r>
       </set>
       <set comment="band 3">
        <r>  0.0872  0.0623  0.0000  0.2825  0.0000  0.0000  0.0000  0.0000  0.0000 </r>
       </set>
       <set comment="band 4">
        <r>  0.1896  0.0001  0.0001  0.0009  0.0000  0.0000  0.0000  0.0000  0.0000 </r>
       </set>
       <set comment="band 5">
        <r>  0.1026  0.0469  0.0510  0.4194  0.0000  0.0000  0.0000  0.0000  0.0000 </r>
       </set>
       <set comment="band 6">
        <r>  0.0096  0.2532  0.0062  0.4024  0.0000  0.0000  0.0000  0.0000  0.0000 </r>
       </set>
       <set comment="band 7">
        <r>  0.0076  0.2062  0.1712  0.3249  0.0000  0.0000  0.0000  0.0000  0.0000 </r>
       </set>
       <set comment="band 8">
        <r>  0.1926  0.3132  0.3873  0.2160  0.0000  0.0000  0.0000  0.0000  0.0000 </r>
       </set>
      </set>
      <set comment="kpoint 13">
       <set comment="band 1">
        <r>  0.4182  0.0183  0.0000  0.0075  0.0000  0.0000  0.0000  0.0000  0.0000 </r>
       </set>
       <set comment="band 2">
        <r>  0.1695  0.1840  0.0000  0.0009  0.0000  0.0000  0.0000  0.0000  0.0000 </r>
       </set>
       <set comment="band 3">
        <r>  0.1135  0.0511  0.0000  0.2989  0.0000  0.0000  0.0000  0.0000  0.0000 </r>
       </set>
       <set comment="band 4">
        <r>  0.1883  0.0002  0.0000  0.0032  0.0000  0.0000  0.0000  0.0000  0.0000 </r>
       </set>
       <set comment="band 5">
        <r>  0.0202  0.0483  0.3818  0.2187  0.0000  0.0000  0.0000  0.0000  0.0000 </r>
       </set>
       <set comment="band 6">
        <r>  0.0416  0.3560  0.1521  0.3838  0.0000  0.0000  0.0000  0.0000  0.0000 </r>
       </set>
       <set comment="band 7">
        <r>  0.0463  0.0582  0.1434  0.0628  0.0000  0.0000  0.0000  0.0000  0.0000 </r>
       </set>
       <set comment="band 8">
        <r>  0.0184  0.1950  0.0775  0.1624  0.0000  0.0000  0.0000  0.0000  0.0000 </r>
       </set>
      </set>
      <set comment="kpoint 14">
       <set comment="band 1">
        <r>  0.4251  0.0200  0.0000  0.0062  0.0000  0.0000  0.0000  0.0000  0.0000 </r>
       </set>
       <set comment="band 2">
        <r>  0.1536  0.1788  0.0000  0.0014  0.0000  0.0000  0.0000  0.0000  0.0000 </r>
       </set>
       <set comment="band 3">
        <r>  0.1320  0.0477  0.0000  0.3025  0.0000  0.0000  0.0000  0.0000  0.0000 </r>
       </set>
       <set comment="band 4">
        <r>  0.1834  0.0000  0.0000  0.0074  0.0000  0.0000  0.0000  0.0000  0.0000 </r>
       </set>
       <set comment="band 5">
        <r>  0.0358  0.2838  0.0947  0.0458  0.0000  0.0000  0.0000  0.0000  0.0000 </r>
       </set>
       <set comment="band 6">
        <r>  0.0161  0.0481  0.4573  0.2399  0.0000  0.0000  0.0000  0.0000  0.0000 </r>
       </set>
       <set comment="band 7">
        <r>  0.0027  0.9952  0.1183  0.4603  0.0000  0.0000  0.0000  0.0000  0.0000 </r>
       </set>
       <set comment="band 8">
        <r>  0.0017  1.1017  0.1398  0.0903  0.0000  0.0000  0.0000  0.0000  0.0000 </r>
       </set>
      </set>
      <set comment="kpoint 15">
       <set comment="band 1">
        <r>  0.4356  0.0196  0.0000  0.0042  0.0000  0.0000  0.0000  0.0000  0.0000 </r>
       </set>
       <set comment="band 2">
        <r>  0.1382  0.1796  0.0000  0.0009  0.0000  0.0000  0.0000  0.0000  0.0000 </r>
       </set>
       <set comment="band 3">
        <r>  0.1531  0.0443  0.0000  0.3218  0.0000  0.0000  0.0000  0.0000  0.0000 </r>
       </set>
       <set comment="band 4">
        <r>  0.1767  0.0006  0.0007  0.0144  0.0000  0.0000  0.0000  0.0000  0.0000 </r>
       </set>
       <set comment="band 5">
        <r>  0.0000  0.2326  0.2552  0.1983  0.0000  0.0000  0.0000  0.0000  0.0000 </r>
       </set>
       <set comment="band 6">
        <r>  0.0151  0.0662  0.1721  0.3468  0.0000  0.0000  0.0000  0.0000  0.0000 </r>
       </set>
       <set comment="band 7">
        <r>  0.0396  0.1611  0.2025  0.0045  0.0000  0.0000  0.0000  0.0000  0.0000 </r>
       </set>
       <set comment="band 8">
        <r>  0.0138  0.0524  0.0772  0.2290  0.0000  0.0000  0.0000  0.0000  0.0000 </r>
       </set>
      </set>
      <set comment="kpoint 16">
       <set comment="band 1">
        <r>  0.4518  0.0195  0.0000  0.0026  0.0000  0.0000  0.0000  0.0000  0.0000 </r>
       </set>
       <set comment="band 2">
        <r>  0.1197  0.1744  0.0000  0.0005  0.0000  0.0000  0.0000  0.0000  0.0000 </r>
       </set>
       <set comment="band 3">
        <r>  0.1836  0.0432  0.0000  0.3301  0.0000  0.0000  0.0000  0.0000  0.0000 </r>
       </set>
       <set comment="band 4">
        <r>  0.1606  0.0000  0.0007  0.0555  0.0000  0.0000  0.0000  0.0000  0.0000 </r>
       </set>
       <set comment="band 5">
        <r>  0.0004  0.2560  0.1092  0.2601  0.0000  0.0000  0.0000  0.0000  0.0000 </r>
       </set>
       <set comment="band 6">
        <r>  0.0040  0.0472  0.2938  0.1680  0.0000  0.0000  0.0000  0.0000  0.0000 </r>
       </set>
       <set comment="band 7">
        <r>  0.1111  0.0045  0.0111  0.2923  0.0000  0.0000  0.0000  0.0000  0.0000 </r>
       </set>
       <set comment="band 8">
        <r>  0.0086  0.1266  0.2557  0.5826  0.0000  0.0000  0.0000  0.0000  0.0000 </r>
       </set>
      </set>
      <set comment="kpoint 17">
       <set comment="band 1">
        <r>  0.4760  0.0174  0.0000  0.0014  0.0000  0.0000  0.0000  0.0000  0.0000 </r>
       </set>
       <set comment="band 2">
        <r>  0.0943  0.1721  0.0000  0.0002  0.0000  0.0000  0.0000  0.0000  0.0000 </r>
       </set>
       <set comment="band 3">
        <r>  0.2337  0.0386  0.0000  0.3115  0.0000  0.0000  0.0000  0.0000  0.0000 </r>
       </set>
       <set comment="band 4">
        <r>  0.1325  0.0016  0.0000  0.1399  0.0000  0.0000  0.0000  0.0000  0.0000 </r>
       </set>
       <set comment="band 5">
        <r>  0.0163  0.1306  0.2452  0.1192  0.0000  0.0000  0.0000  0.0000  0.0000 </r>
       </set>
       <set comment="band 6">
        <r>  0.0833  0.6671  0.0516  0.0959  0.0000  0.0000  0.0000  0.0000  0.0000 </r>
       </set>
       <set comment="band 7">
        <r>  0.1054  0.3883  0.1109  0.0373  0.0000  0.0000  0.0000  0.0000  0.0000 </r>
       </set>
       <set comment="band 8">
        <r>  0.0248  0.0455  0.2156  0.0963  0.0000  0.0000  0.0000  0.0000  0.0000 </r>
       </set>
      </set>
      <set comment="kpoint 18">
       <set comment="band 1">
        <r>  0.5100  0.0125  0.0000  0.0007  0.0000  0.0000  0.0000  0.0000  0.0000 </r>
       </set>
       <set comment="band 2">
        <r>  0.0596  0.1738  0.0000  0.0000  0.0000  0.0000  0.0000  0.0000  0.0000 </r>
       </set>
       <set comment="band 3">
        <r>  0.3114  0.0271  0.0000  0.2231  0.0000  0.0000  0.0000  0.0000  0.0000 </r>
       </set>
       <set comment="band 4">
        <r>  0.0768  0.0041  0.0001  0.3566  0.0000  0.0000  0.0000  0.0000  0.0000 </r>
       </set>
       <set comment="band 5">
        <r>  0.0016  0.0116  0.0248  0.1789  0.0000  0.0000  0.0000  0.0000  0.0000 </r>
       </set>
       <set comment="band 6">
        <r>  0.0488  0.0017  0.0591  0.0431  0.0000  0.0000  0.0000  0.0000  0.0000 </r>
       </set>
       <set comment="band 7">
        <r>  0.0656  0.3686  0.0039  0.4126  0.0000  0.0000  0.0000  0.0000  0.0000 </r>
       </set>
       <set comment="band 8">
        <r>  0.0093  0.1777  0.0352  0.0070  0.0000  0.0000  0.0000  0.0000  0.0000 </r>
       </set>
      </set>
      <set comment="kpoint 19">
       <set comment="band 1">
        <r>  0.5487  0.0041  0.0000  0.0003  0.0000  0.0000  0.0000  0.0000  0.0000 </r>
       </set>
       <set comment="band 2">
        <r>  0.0201  0.1837  0.0000  0.0000  0.0000  0.0000  0.0000  0.0000  0.0000 </r>
       </set>
       <set comment="band 3">
        <r>  0.3907  0.0080  0.0000  0.0700  0.0000  0.0000  0.0000  0.0000  0.0000 </r>
       </set>
       <set comment="band 4">
        <r>  0.0218  0.0118  0.0010  0.8382  0.0000  0.0000  0.0000  0.0000  0.0000 </r>
       </set>
       <set comment="band 5">
        <r>  0.0055  0.0865  0.0010  0.3429  0.0000  0.0000  0.0000  0.0000  0.0000 </r>
       </set>
       <set comment="band 6">
        <r>  0.1322  0.0026  0.1803  0.0163  0.0000  0.0000  0.0000  0.0000  0.0000 </r>
       </set>
       <set comment="band 7">
        <r>  0.0203  1.0996  0.0610  0.0118  0.0000  0.0000  0.0000  0.0000  0.0000 </r>
       </set>
       <set comment="band 8">
        <r>  0.0037  0.3622  0.0728  0.0207  0.0000  0.0000  0.0000  0.0000  0.0000 </r>
       </set>
      </set>
      <set comment="kpoint 20">
       <set comment="band 1">
        <r>  0.5687  0.0000  0.0000  0.0000  0.0000  0.0000  0.0000  0.0000  0.0000 </r>
       </set>
       <set comment="band 2">
        <r>  0.0000  0.1871  0.0000  0.0000  0.0000  0.0000  0.0000  0.0000  0.0000 </r>
       </set>
       <set comment="band 3">
        <r>  0.4202  0.0000  0.0001  0.0013  0.0000  0.0000  0.0000  0.0000  0.0000 </r>
       </set>
       <set comment="band 4">
        <r>  0.0000  0.0087  0.0011  0.0058  0.0000  0.0000  0.0000  0.0000  0.0000 </r>
       </set>
       <set comment="band 5">
        <r>  0.0000  0.0479  0.0003  0.0000  0.0000  0.0000  0.0000  0.0000  0.0000 </r>
       </set>
       <set comment="band 6">
        <r>  0.2183  0.0188  0.1055  0.0590  0.0000  0.0000  0.0000  0.0000  0.0000 </r>
       </set>
       <set comment="band 7">
        <r>  0.0000  0.3177  0.9951  0.6186  0.0000  0.0000  0.0000  0.0000  0.0000 </r>
       </set>
       <set comment="band 8">
        <r>  0.0010  0.8204  0.1619  0.7440  0.0000  0.0000  0.0000  0.0000  0.0000 </r>
       </set>
      </set>
     </set>
    </set>
   </array>
  </projected>
 </calculation>
 <structure name="finalpos" >
  <crystal>
   <varray name="basis" >
    <v>       1.43536055       0.00000000       0.00000000 </v>
    <v>       0.00000000       1.43536055       0.00000000 </v>
    <v>       0.00000000       0.00000000       1.43536055 </v>
   </varray>
   <i name="volume">      2.95721580 </i>
   <varray name="rec_basis" >
    <v>       0.69668907       0.00000000       0.00000000 </v>
    <v>       0.00000000       0.69668907       0.00000000 </v>
    <v>       0.00000000       0.00000000       0.69668907 </v>
   </varray>
  </crystal>
  <varray name="positions" >
   <v>       0.00000000       0.00000000       0.00000000 </v>
  </varray>
 </structure>
</modeling>
