 vasp.5.4.4.18Apr17-6-g9f103f2a35 (build Nov 24 2017 21:18:46) complex          
  
 executed on             LinuxIFC date 2017.11.24  22:19:58
 running on   10 total cores
 distrk:  each k-point on   10 cores,    1 groups
 distr:  one band on NCORES_PER_BAND=   1 cores,   10 groups


--------------------------------------------------------------------------------------------------------


 INCAR:
 POTCAR:   PAW_PBE Si 05Jan2001                   

 ----------------------------------------------------------------------------- 
|                                                                             |
|           W    W    AA    RRRRR   N    N  II  N    N   GGGG   !!!           |
|           W    W   A  A   R    R  NN   N  II  NN   N  G    G  !!!           |
|           W    W  A    A  R    R  N N  N  II  N N  N  G       !!!           |
|           W WW W  AAAAAA  RRRRR   N  N N  II  N  N N  G  GGG   !            |
|           WW  WW  A    A  R   R   N   NN  II  N   NN  G    G                |
|           W    W  A    A  R    R  N    N  II  N    N   GGGG   !!!           |
|                                                                             |
|      For optimal performance we recommend to set                            |
|        NCORE= 4 - approx SQRT( number of cores)                             |
|      NCORE specifies how many cores store one orbital (NPAR=cpu/NCORE).     |
|      This setting can  greatly improve the performance of VASP for DFT.     |
|      The default,   NCORE=1            might be grossly inefficient         |
|      on modern multi-core architectures or massively parallel machines.     |
|      Do your own testing !!!!                                               |
|      Unfortunately you need to use the default for GW and RPA calculations. |
|      (for HF NCORE is supported but not extensively tested yet)             |
|                                                                             |
 ----------------------------------------------------------------------------- 

 POTCAR:   PAW_PBE Si 05Jan2001                   
   VRHFIN =Si: s2p2                                                             
   LEXCH  = PE                                                                  
   EATOM  =   103.0669 eV,    7.5752 Ry                                         
                                                                                
   TITEL  = PAW_PBE Si 05Jan2001                                                
   LULTRA =        F    use ultrasoft PP ?                                      
   IUNSCR =        1    unscreen: 0-lin 1-nonlin 2-no                           
   RPACOR =    1.500    partial core radius                                     
   POMASS =   28.085; ZVAL   =    4.000    mass and valenz                      
   RCORE  =    1.900    outmost cutoff radius                                   
   RWIGS  =    2.480; RWIGS  =    1.312    wigner-seitz radius (au A)           
   ENMAX  =  245.345; ENMIN  =  184.009 eV                                      
   ICORE  =        2    local potential                                         
   LCOR   =        T    correct aug charges                                     
   LPAW   =        T    paw PP                                                  
   EAUG   =  322.069                                                            
   DEXC   =    -.007                                                            
   RMAX   =    2.944    core radius for proj-oper                               
   RAUG   =    1.300    factor for augmentation sphere                          
   RDEP   =    1.993    radius for radial grids                                 
   QCUT   =   -4.246; QGAM   =    8.493    optimization parameters              
                                                                                
   Description                                                                  
     l     E      TYP  RCUT    TYP  RCUT                                        
     0   .000     23  1.900                                                     
     0   .000     23  1.900                                                     
     1   .000     23  1.900                                                     
     1   .000     23  1.900                                                     
     2   .000      7  1.900                                                     
  local pseudopotential read in
  partial core-charges read in
  atomic valenz-charges read in
  non local Contribution for L=           0  read in
    real space projection operators read in
  non local Contribution for L=           0  read in
    real space projection operators read in
  non local Contribution for L=           1  read in
    real space projection operators read in
  non local Contribution for L=           1  read in
    real space projection operators read in
    PAW grid and wavefunctions read in
 
   number of l-projection  operators is LMAX  =           4
   number of lm-projection operators is LMMAX =           8
 
 PAW_PBE Si 05Jan2001                   :
 energy of atom  1       EATOM= -103.0669
 kinetic energy error for atom=    0.0016 (will be added to EATOM!!)
 
 
 POSCAR: Silicon                                 
  positions in direct lattice
  No initial velocities read in
 exchange correlation table for  LEXCH =        8
   RHO(1)=    0.500       N(1)  =     2000
   RHO(2)=  100.500       N(2)  =     4000
 


--------------------------------------------------------------------------------------------------------


 ion  position               nearest neighbor table
   1  0.000  0.000  0.000-   5 2.35   6 2.35   7 2.35   8 2.35
   2  0.000  0.500  0.500-   5 2.35   6 2.35   7 2.35   8 2.35
   3  0.500  0.500  0.000-   5 2.35   6 2.35   7 2.35   8 2.35
   4  0.500  0.000  0.500-   5 2.35   6 2.35   7 2.35   8 2.35
   5  0.750  0.250  0.750-   1 2.35   2 2.35   3 2.35   4 2.35
   6  0.250  0.250  0.250-   1 2.35   2 2.35   3 2.35   4 2.35
   7  0.250  0.750  0.750-   1 2.35   2 2.35   3 2.35   4 2.35
   8  0.750  0.750  0.250-   1 2.35   2 2.35   3 2.35   4 2.35
 
  LATTYP: Found a simple cubic cell.
 ALAT       =     5.4299998283
  
  Lattice vectors:
  
 A1 = (   5.4299998283,   0.0000000000,   0.0000000000)
 A2 = (   0.0000000000,   5.4299998283,   0.0000000000)
 A3 = (   0.0000000000,   0.0000000000,   5.4299998283)


Analysis of symmetry for initial positions (statically):
=====================================================================
 Subroutine PRICEL returns following result:
 
  LATTYP: Found a face centered cubic cell.
 ALAT       =     5.4299998283
  
  Lattice vectors:
  
 A1 = (   2.7149999141,   2.7149999141,  -0.0000000000)
 A2 = (   2.7149999141,   0.0000000000,  -2.7149999142)
 A3 = (   0.0000000000,   2.7149999141,  -2.7149999142)
 
   4 primitive cells build up your supercell.
 

 Routine SETGRP: Setting up the symmetry group for a 
 simple cubic supercell.


 Subroutine GETGRP returns: Found 48 space group operations
 (whereof 24 operations were pure point group operations)
 out of a pool of 48 trial point group operations.


The static configuration has the point symmetry T_d .
 The point group associated with its full space group is O_h .


Analysis of symmetry for dynamics (positions and initial velocities):
=====================================================================
 Subroutine PRICEL returns following result:
 
  LATTYP: Found a face centered cubic cell.
 ALAT       =     5.4299998283
  
  Lattice vectors:
  
 A1 = (   2.7149999141,   2.7149999141,  -0.0000000000)
 A2 = (   2.7149999141,   0.0000000000,  -2.7149999142)
 A3 = (   0.0000000000,   2.7149999141,  -2.7149999142)
 
   4 primitive cells build up your supercell.
 

 Routine SETGRP: Setting up the symmetry group for a 
 simple cubic supercell.


 Subroutine GETGRP returns: Found 48 space group operations
 (whereof 24 operations were pure point group operations)
 out of a pool of 48 trial point group operations.


The dynamic configuration has the point symmetry T_d .
 The point group associated with its full space group is O_h .


 Subroutine INISYM returns: Found 48 space group operations
 (whereof 24 operations are pure point group operations),
 and found     4 'primitive' translations

 
 

Automatic generation of k-mesh.
 generate k-points for:    6    6    6
Space group operators:
 irot       det(A)        alpha          n_x          n_y          n_z        tau_x        tau_y        tau_z
    1     1.000000     0.000000     1.000000     0.000000     0.000000     0.000000     0.000000     0.000000
    2     1.000000   120.000000    -0.577350    -0.577350    -0.577350     0.000000     0.000000     0.000000
    3     1.000000   120.000000     0.577350     0.577350     0.577350     0.000000     0.000000     0.000000
    4    -1.000000    90.000000     0.000000     0.000000    -1.000000     0.000000     0.000000     0.000000
    5    -1.000000   180.000000     0.000000     0.707107     0.707107     0.000000     0.000000     0.000000
    6    -1.000000    90.000000     0.000000     1.000000     0.000000     0.000000     0.000000     0.000000
    7     1.000000   180.000000     0.000000     0.000000     1.000000     0.000000     0.000000     0.000000
    8     1.000000   120.000000    -0.577350     0.577350     0.577350     0.000000     0.000000     0.000000
    9     1.000000   120.000000    -0.577350     0.577350    -0.577350     0.000000     0.000000     0.000000
   10    -1.000000    90.000000     0.000000     0.000000     1.000000     0.000000     0.000000     0.000000
   11    -1.000000    90.000000    -1.000000     0.000000     0.000000     0.000000     0.000000     0.000000
   12    -1.000000   180.000000     0.707107     0.000000     0.707107     0.000000     0.000000     0.000000
   13     1.000000   120.000000     0.577350    -0.577350     0.577350     0.000000     0.000000     0.000000
   14     1.000000   120.000000    -0.577350    -0.577350     0.577350     0.000000     0.000000     0.000000
   15     1.000000   180.000000     1.000000     0.000000     0.000000     0.000000     0.000000     0.000000
   16    -1.000000    90.000000     0.000000    -1.000000     0.000000     0.000000     0.000000     0.000000
   17    -1.000000   180.000000     0.707107     0.707107     0.000000     0.000000     0.000000     0.000000
   18    -1.000000    90.000000     1.000000     0.000000     0.000000     0.000000     0.000000     0.000000
   19     1.000000   120.000000     0.577350    -0.577350    -0.577350     0.000000     0.000000     0.000000
   20     1.000000   180.000000     0.000000     1.000000     0.000000     0.000000     0.000000     0.000000
   21     1.000000   120.000000     0.577350     0.577350    -0.577350     0.000000     0.000000     0.000000
   22    -1.000000   180.000000     0.000000    -0.707107     0.707107     0.000000     0.000000     0.000000
   23    -1.000000   180.000000     0.707107    -0.707107     0.000000     0.000000     0.000000     0.000000
   24    -1.000000   180.000000     0.707107     0.000000    -0.707107     0.000000     0.000000     0.000000
   25    -1.000000     0.000000     1.000000     0.000000     0.000000     0.750000     0.750000    -0.750000
   26    -1.000000   120.000000    -0.577350    -0.577350    -0.577350     0.750000     0.750000    -0.750000
   27    -1.000000   120.000000     0.577350     0.577350     0.577350     0.750000     0.750000    -0.750000
   28     1.000000    90.000000     0.000000     0.000000    -1.000000     0.750000     0.750000    -0.750000
   29     1.000000   180.000000     0.000000     0.707107     0.707107     0.750000     0.750000    -0.750000
   30     1.000000    90.000000     0.000000     1.000000     0.000000     0.750000     0.750000    -0.750000
   31    -1.000000   180.000000     0.000000     0.000000     1.000000     0.750000     0.750000    -0.750000
   32    -1.000000   120.000000    -0.577350     0.577350     0.577350     0.750000     0.750000    -0.750000
   33    -1.000000   120.000000    -0.577350     0.577350    -0.577350     0.750000     0.750000    -0.750000
   34     1.000000    90.000000     0.000000     0.000000     1.000000     0.750000     0.750000    -0.750000
   35     1.000000    90.000000    -1.000000     0.000000     0.000000     0.750000     0.750000    -0.750000
   36     1.000000   180.000000     0.707107     0.000000     0.707107     0.750000     0.750000    -0.750000
   37    -1.000000   120.000000     0.577350    -0.577350     0.577350     0.750000     0.750000    -0.750000
   38    -1.000000   120.000000    -0.577350    -0.577350     0.577350     0.750000     0.750000    -0.750000
   39    -1.000000   180.000000     1.000000     0.000000     0.000000     0.750000     0.750000    -0.750000
   40     1.000000    90.000000     0.000000    -1.000000     0.000000     0.750000     0.750000    -0.750000
   41     1.000000   180.000000     0.707107     0.707107     0.000000     0.750000     0.750000    -0.750000
   42     1.000000    90.000000     1.000000     0.000000     0.000000     0.750000     0.750000    -0.750000
   43    -1.000000   120.000000     0.577350    -0.577350    -0.577350     0.750000     0.750000    -0.750000
   44    -1.000000   180.000000     0.000000     1.000000     0.000000     0.750000     0.750000    -0.750000
   45    -1.000000   120.000000     0.577350     0.577350    -0.577350     0.750000     0.750000    -0.750000
   46     1.000000   180.000000     0.000000    -0.707107     0.707107     0.750000     0.750000    -0.750000
   47     1.000000   180.000000     0.707107    -0.707107     0.000000     0.750000     0.750000    -0.750000
   48     1.000000   180.000000     0.707107     0.000000    -0.707107     0.750000     0.750000    -0.750000
 
 Subroutine IBZKPT returns following result:
 ===========================================
 
 Found     20 irreducible k-points:
 
 Following reciprocal coordinates:
            Coordinates               Weight
  0.000000  0.000000  0.000000      1.000000
  0.166667  0.000000  0.000000      6.000000
  0.333333  0.000000  0.000000      6.000000
  0.500000  0.000000  0.000000      3.000000
  0.166667  0.166667  0.000000     12.000000
  0.333333  0.166667  0.000000     24.000000
  0.500000  0.166667  0.000000     12.000000
  0.333333  0.333333  0.000000     12.000000
  0.500000  0.333333  0.000000     12.000000
  0.500000  0.500000  0.000000      3.000000
  0.166667  0.166667  0.166667      8.000000
  0.333333  0.166667  0.166667     24.000000
  0.500000  0.166667  0.166667     12.000000
  0.333333  0.333333  0.166667     24.000000
  0.500000  0.333333  0.166667     24.000000
  0.500000  0.500000  0.166667      6.000000
  0.333333  0.333333  0.333333      8.000000
  0.500000  0.333333  0.333333     12.000000
  0.500000  0.500000  0.333333      6.000000
  0.500000  0.500000  0.500000      1.000000
 
 Following cartesian coordinates:
            Coordinates               Weight
  0.000000  0.000000  0.000000      1.000000
  0.030694  0.000000  0.000000      6.000000
  0.061387  0.000000  0.000000      6.000000
  0.092081  0.000000  0.000000      3.000000
  0.030694  0.030694  0.000000     12.000000
  0.061387  0.030694  0.000000     24.000000
  0.092081  0.030694  0.000000     12.000000
  0.061387  0.061387  0.000000     12.000000
  0.092081  0.061387  0.000000     12.000000
  0.092081  0.092081  0.000000      3.000000
  0.030694  0.030694  0.030694      8.000000
  0.061387  0.030694  0.030694     24.000000
  0.092081  0.030694  0.030694     12.000000
  0.061387  0.061387  0.030694     24.000000
  0.092081  0.061387  0.030694     24.000000
  0.092081  0.092081  0.030694      6.000000
  0.061387  0.061387  0.061387      8.000000
  0.092081  0.061387  0.061387     12.000000
  0.092081  0.092081  0.061387      6.000000
  0.092081  0.092081  0.092081      1.000000
 


--------------------------------------------------------------------------------------------------------




 Dimension of arrays:
   k-points           NKPTS =     20   k-points in BZ     NKDIM =     20   number of bands    NBANDS=     30
   number of dos      NEDOS =    301   number of ions     NIONS =      8
   non local maximal  LDIM  =      4   non local SUM 2l+1 LMDIM =      8
   total plane-waves  NPLWV =  13824
   max r-space proj   IRMAX =      1   max aug-charges    IRDMAX=   3086
   dimension x,y,z NGX =    24 NGY =   24 NGZ =   24
   dimension x,y,z NGXF=    48 NGYF=   48 NGZF=   48
   support grid    NGXF=    48 NGYF=   48 NGZF=   48
   ions per type =               8
   NGX,Y,Z   is equivalent  to a cutoff of   7.35,  7.35,  7.35 a.u.
   NGXF,Y,Z  is equivalent  to a cutoff of  14.70, 14.70, 14.70 a.u.

 SYSTEM =  Silicon                                 
 POSCAR =  Silicon                                 

 Startparameter for this run:
   NWRITE =      2    write-flag & timer
   PREC   = normal    normal or accurate (medium, high low for compatibility)
   ISTART =      1    job   : 0-new  1-cont  2-samecut
   ICHARG =     11    charge: 1-file 2-atom 10-const
   ISPIN  =      1    spin polarized calculation?
   LNONCOLLINEAR =      F non collinear calculations
   LSORBIT =      F    spin-orbit coupling
   INIWAV =      1    electr: 0-lowe 1-rand  2-diag
   LASPH  =      F    aspherical Exc in radial PAW
   METAGGA=      F    non-selfconsistent MetaGGA calc.

 Electronic Relaxation 1
   ENCUT  =  318.9 eV  23.44 Ry    4.84 a.u.   7.91  7.91  7.91*2*pi/ulx,y,z
   ENINI  =  318.9     initial cutoff
   ENAUG  =  322.1 eV  augmentation charge cutoff
   NELM   =    100;   NELMIN=  2; NELMDL=  0     # of ELM steps 
   EDIFF  = 0.1E-05   stopping-criterion for ELM
   LREAL  =      F    real-space projection
   NLSPLINE    = F    spline interpolate recip. space projectors
   LCOMPAT=      F    compatible to vasp.4.4
   GGA_COMPAT  = T    GGA compatible to vasp.4.4-vasp.4.6
   LMAXPAW     = -100 max onsite density
   LMAXMIX     =    2 max onsite mixed and CHGCAR
   VOSKOWN=      0    Vosko Wilk Nusair interpolation
   ROPT   =    0.00000
 Ionic relaxation
   EDIFFG = 0.1E-04   stopping-criterion for IOM
   NSW    =      0    number of steps for IOM
   NBLOCK =      1;   KBLOCK =      1    inner block; outer block 
   IBRION =     -1    ionic relax: 0-MD 1-quasi-New 2-CG
   NFREE  =      0    steps in history (QN), initial steepest desc. (CG)
   ISIF   =      2    stress and relaxation
   IWAVPR =     10    prediction:  0-non 1-charg 2-wave 3-comb
   ISYM   =      2    0-nonsym 1-usesym 2-fastsym
   LCORR  =      T    Harris-Foulkes like correction to forces

   POTIM  = 0.5000    time-step for ionic-motion
   TEIN   =    0.0    initial temperature
   TEBEG  =    0.0;   TEEND  =   0.0 temperature during run
   SMASS  =  -3.00    Nose mass-parameter (am)
   estimated Nose-frequenzy (Omega)   =  0.10E-29 period in steps =****** mass=  -0.674E-27a.u.
   SCALEE = 1.0000    scale energy and forces
   NPACO  =    256;   APACO  = 16.0  distance and # of slots for P.C.
   PSTRESS=    0.0 pullay stress

  Mass of Ions in am
   POMASS =  28.09
  Ionic Valenz
   ZVAL   =   4.00
  Atomic Wigner-Seitz radii
   RWIGS  =  -1.00
  virtual crystal weights 
   VCA    =   1.00
   NELECT =      32.0000    total number of electrons
   NUPDOWN=      -1.0000    fix difference up-down

 DOS related values:
   EMIN   =  10.00;   EMAX   =-10.00  energy-range for DOS
   EFERMI =   0.00
   ISMEAR =     0;   SIGMA  =   0.10  broadening in eV -4-tet -1-fermi 0-gaus

 Electronic relaxation 2 (details)
   IALGO  =     68    algorithm
   LDIAG  =      T    sub-space diagonalisation (order eigenvalues)
   LSUBROT=      F    optimize rotation matrix (better conditioning)
   TURBO    =      0    0=normal 1=particle mesh
   IRESTART =      0    0=no restart 2=restart with 2 vectors
   NREBOOT  =      0    no. of reboots
   NMIN     =      0    reboot dimension
   EREF     =   0.00    reference energy to select bands
   IMIX   =      4    mixing-type and parameters
     AMIX     =   0.40;   BMIX     =  1.00
     AMIX_MAG =   1.60;   BMIX_MAG =  1.00
     AMIN     =   0.01
     WC   =   100.;   INIMIX=   1;  MIXPRE=   1;  MAXMIX= -45

 Intra band minimization:
   WEIMIN = 0.0000     energy-eigenvalue tresh-hold
   EBREAK =  0.83E-08  absolut break condition
   DEPER  =   0.30     relativ break condition  

   TIME   =   0.40     timestep for ELM

  volume/ion in A,a.u.               =      20.01       135.05
  Fermi-wavevector in a.u.,A,eV,Ry     =   0.957176  1.808800 12.465459  0.916185
  Thomas-Fermi vector in A             =   2.086170
 
 Write flags
   LWAVE        =      T    write WAVECAR
   LDOWNSAMPLE  =      F    k-point downsampling of WAVECAR
   LCHARG       =      T    write CHGCAR
   LVTOT        =      F    write LOCPOT, total local potential
   LVHAR        =      F    write LOCPOT, Hartree potential only
   LELF         =      F    write electronic localiz. function (ELF)
   LORBIT       =      0    0 simple, 1 ext, 2 COOP (PROOUT), +10 PAW based schemes


 Dipole corrections
   LMONO  =      F    monopole corrections only (constant potential shift)
   LDIPOL =      F    correct potential (dipole corrections)
   IDIPOL =      0    1-x, 2-y, 3-z, 4-all directions 
   EPSILON=  1.0000000 bulk dielectric constant

 Exchange correlation treatment:
   GGA     =    --    GGA type
   LEXCH   =     8    internal setting for exchange type
   VOSKOWN=      0    Vosko Wilk Nusair interpolation
   LHFCALC =     F    Hartree Fock is set to
   LHFONE  =     F    Hartree Fock one center treatment
   AEXX    =    0.0000 exact exchange contribution

 Linear response parameters
   LEPSILON=     F    determine dielectric tensor
   LRPA    =     F    only Hartree local field effects (RPA)
   LNABLA  =     F    use nabla operator in PAW spheres
   LVEL    =     F    velocity operator in full k-point grid
   LINTERFAST=   F  fast interpolation
   KINTER  =     0    interpolate to denser k-point grid
   CSHIFT  =0.1000    complex shift for real part using Kramers Kronig
   OMEGAMAX=  -1.0    maximum frequency
   DEG_THRESHOLD= 0.2000000E-02 threshold for treating states as degnerate
   RTIME   =   -0.100 relaxation time in fs
  (WPLASMAI=    0.000 imaginary part of plasma frequency in eV, 0.658/RTIME)
   DFIELD  = 0.0000000 0.0000000 0.0000000 field for delta impulse in time
 
 Orbital magnetization related:
   ORBITALMAG=     F  switch on orbital magnetization
   LCHIMAG   =     F  perturbation theory with respect to B field
   DQ        =  0.001000  dq finite difference perturbation B field
   LLRAUG    =     F  two centre corrections for induced B field



--------------------------------------------------------------------------------------------------------


 Static calculation
 charge density and potential remain constant during run
 non-spin polarized calculation
 RMM-DIIS sequential band-by-band and
  variant of blocked Davidson during initial phase
 perform sub-space diagonalisation
    before iterative eigenvector-optimisation
 no mixing
 using additional bands           14
 reciprocal scheme for non local part
 use partial core corrections
 calculate Harris-corrections to forces 
   (improved forces if not selfconsistent)
 use gradient corrections 
 WARNING: stress and forces are not correct
  (second derivative of E(xc) not defined)
 use of overlap-Matrix (Vanderbilt PP)
 Gauss-broadening in eV      SIGMA  =   0.10


--------------------------------------------------------------------------------------------------------


  energy-cutoff  :      318.95
  volume of cell :      160.10
      direct lattice vectors                 reciprocal lattice vectors
     5.429999828  0.000000000  0.000000000     0.184162068  0.000000000  0.000000000
     0.000000000  5.429999828  0.000000000     0.000000000  0.184162068  0.000000000
     0.000000000  0.000000000  5.429999828     0.000000000  0.000000000  0.184162068

  length of vectors
     5.429999828  5.429999828  5.429999828     0.184162068  0.184162068  0.184162068


 
 old parameters found on file WAVECAR:
  energy-cutoff  :      318.95
  volume of cell :      160.10
      direct lattice vectors                 reciprocal lattice vectors
     5.429999828  0.000000000  0.000000000     0.184162068  0.000000000  0.000000000
     0.000000000  5.429999828  0.000000000     0.000000000  0.184162068  0.000000000
     0.000000000  0.000000000  5.429999828     0.000000000  0.000000000  0.184162068

  length of vectors

 
 k-points in units of 2pi/SCALE and weight: read from INCAR                         
   0.00000000  0.00000000  0.00000000       0.005
   0.03069368  0.00000000  0.00000000       0.028
   0.06138736  0.00000000  0.00000000       0.028
   0.09208103  0.00000000  0.00000000       0.014
   0.03069368  0.03069368  0.00000000       0.056
   0.06138736  0.03069368  0.00000000       0.111
   0.09208103  0.03069368  0.00000000       0.056
   0.06138736  0.06138736  0.00000000       0.056
   0.09208103  0.06138736  0.00000000       0.056
   0.09208103  0.09208103  0.00000000       0.014
   0.03069368  0.03069368  0.03069368       0.037
   0.06138736  0.03069368  0.03069368       0.111
   0.09208103  0.03069368  0.03069368       0.056
   0.06138736  0.06138736  0.03069368       0.111
   0.09208103  0.06138736  0.03069368       0.111
   0.09208103  0.09208103  0.03069368       0.028
   0.06138736  0.06138736  0.06138736       0.037
   0.09208103  0.06138736  0.06138736       0.056
   0.09208103  0.09208103  0.06138736       0.028
   0.09208103  0.09208103  0.09208103       0.005
 
 k-points in reciprocal lattice and weights: read from INCAR                         
   0.00000000  0.00000000  0.00000000       0.005
   0.16666667  0.00000000  0.00000000       0.028
   0.33333333  0.00000000  0.00000000       0.028
   0.50000000  0.00000000  0.00000000       0.014
   0.16666667  0.16666667  0.00000000       0.056
   0.33333333  0.16666667  0.00000000       0.111
   0.50000000  0.16666667  0.00000000       0.056
   0.33333333  0.33333333  0.00000000       0.056
   0.50000000  0.33333333  0.00000000       0.056
   0.50000000  0.50000000  0.00000000       0.014
   0.16666667  0.16666667  0.16666667       0.037
   0.33333333  0.16666667  0.16666667       0.111
   0.50000000  0.16666667  0.16666667       0.056
   0.33333333  0.33333333  0.16666667       0.111
   0.50000000  0.33333333  0.16666667       0.111
   0.50000000  0.50000000  0.16666667       0.028
   0.33333333  0.33333333  0.33333333       0.037
   0.50000000  0.33333333  0.33333333       0.056
   0.50000000  0.50000000  0.33333333       0.028
   0.50000000  0.50000000  0.50000000       0.005
 
 position of ions in fractional coordinates (direct lattice) 
   0.00000000  0.00000000  0.00000000
   0.00000000  0.50000000  0.50000000
   0.50000000  0.50000000  0.00000000
   0.50000000  0.00000000  0.50000000
   0.75000000  0.25000000  0.75000000
   0.25000000  0.25000000  0.25000000
   0.25000000  0.75000000  0.75000000
   0.75000000  0.75000000  0.25000000
 
 position of ions in cartesian coordinates  (Angst):
   0.00000000  0.00000000  0.00000000
   0.00000000  2.71499991  2.71499991
   2.71499991  2.71499991  0.00000000
   2.71499991  0.00000000  2.71499991
   4.07249987  1.35749996  4.07249987
   1.35749996  1.35749996  1.35749996
   1.35749996  4.07249987  4.07249987
   4.07249987  4.07249987  1.35749996
 


--------------------------------------------------------------------------------------------------------


 k-point  1 :   0.0000 0.0000 0.0000  plane waves:    2103
 k-point  2 :   0.1667 0.0000 0.0000  plane waves:    2052
 k-point  3 :   0.3333 0.0000 0.0000  plane waves:    2056
 k-point  4 :   0.5000 0.0000 0.0000  plane waves:    2088
 k-point  5 :   0.1667 0.1667 0.0000  plane waves:    2063
 k-point  6 :   0.3333 0.1667 0.0000  plane waves:    2064
 k-point  7 :   0.5000 0.1667 0.0000  plane waves:    2060
 k-point  8 :   0.3333 0.3333 0.0000  plane waves:    2055
 k-point  9 :   0.5000 0.3333 0.0000  plane waves:    2080
 k-point 10 :   0.5000 0.5000 0.0000  plane waves:    2096
 k-point 11 :   0.1667 0.1667 0.1667  plane waves:    2064
 k-point 12 :   0.3333 0.1667 0.1667  plane waves:    2078
 k-point 13 :   0.5000 0.1667 0.1667  plane waves:    2084
 k-point 14 :   0.3333 0.3333 0.1667  plane waves:    2072
 k-point 15 :   0.5000 0.3333 0.1667  plane waves:    2088
 k-point 16 :   0.5000 0.5000 0.1667  plane waves:    2052
 k-point 17 :   0.3333 0.3333 0.3333  plane waves:    2088
 k-point 18 :   0.5000 0.3333 0.3333  plane waves:    2078
 k-point 19 :   0.5000 0.5000 0.3333  plane waves:    2064
 k-point 20 :   0.5000 0.5000 0.5000  plane waves:    2008

 maximum and minimum number of plane-waves per node :      2103     2008

 maximum number of plane-waves:      2103
 maximum index in each direction: 
   IXMAX=    7   IYMAX=    7   IZMAX=    7
   IXMIN=   -8   IYMIN=   -8   IZMIN=   -8


 serial   3D FFT for wavefunctions
 parallel 3D FFT for charge:
    minimum data exchange during FFTs selected (reduces bandwidth)


 total amount of memory used by VASP MPI-rank0    36676. kBytes
=======================================================================

   base      :      30000. kBytes
   nonl-proj :       2970. kBytes
   fftplans  :        460. kBytes
   grid      :       1130. kBytes
   one-center:         24. kBytes
   wavefun   :       2092. kBytes
 
     INWAV:  cpu time    0.0930: real time    0.0924
 initial charge density was supplied:
 number of electron      32.0000059 magnetization 
 keeping initial charge density in first step


--------------------------------------------------------------------------------------------------------


 Maximum index for augmentation-charges          314 (set IRDMAX)


--------------------------------------------------------------------------------------------------------


 First call to EWALD:  gamma=   0.326
 Maximum number of real-space cells 3x 3x 3
 Maximum number of reciprocal cells 3x 3x 3

    FEWALD:  cpu time    0.0010: real time    0.0015


--------------------------------------- Iteration      1(   1)  ---------------------------------------


    POTLOK:  cpu time    0.0090: real time    0.0089
    SETDIJ:  cpu time    0.0020: real time    0.0014
     EDDAV:  cpu time    0.2140: real time    0.2148
       DOS:  cpu time    0.0010: real time    0.0004
    --------------------------------------------
      LOOP:  cpu time    0.2260: real time    0.2256

 eigenvalue-minimisations  :   920
 total energy-change (2. order) :-0.4336141E+02  (-0.2158908E-07)
 number of electron      32.0000059 magnetization 
 augmentation part       32.0000059 magnetization 

 Free energy of the ion-electron system (eV)
  ---------------------------------------------------
  alpha Z        PSCENC =        13.45656938
  Ewald energy   TEWEN  =      -914.25416145
  -Hartree energ DENC   =       -59.66431816
  -exchange      EXHF   =         0.00000000
  -V(xc)+E(xc)   XCENC  =       -71.84155592
  PAW double counting   =       297.71805625     -157.87407160
  entropy T*S    EENTRO =        -0.00000058
  eigenvalues    EBANDS =        24.57555635
  atomic energy  EATOM  =       824.52251144
  Solvation  Ediel_sol  =         0.00000000
  ---------------------------------------------------
  free energy    TOTEN  =       -43.36141431 eV

  energy without entropy =      -43.36141373  energy(sigma->0) =      -43.36141402


--------------------------------------------------------------------------------------------------------




--------------------------------------- Iteration      1(   2)  ---------------------------------------


    EDDIAG:  cpu time    0.0490: real time    0.0493
  RMM-DIIS:  cpu time    0.0770: real time    0.0771
    ORTHCH:  cpu time    0.0100: real time    0.0094
       DOS:  cpu time    0.0000: real time    0.0003
    --------------------------------------------
      LOOP:  cpu time    0.1360: real time    0.1361

 eigenvalue-minimisations  :   304
 total energy-change (2. order) :-0.3174932E-08  (-0.3179524E-08)
 number of electron      32.0000059 magnetization 
 augmentation part       32.0000059 magnetization 

 Free energy of the ion-electron system (eV)
  ---------------------------------------------------
  alpha Z        PSCENC =        13.45656938
  Ewald energy   TEWEN  =      -914.25416145
  -Hartree energ DENC   =       -59.66431816
  -exchange      EXHF   =         0.00000000
  -V(xc)+E(xc)   XCENC  =       -71.84155592
  PAW double counting   =       297.71805625     -157.87407160
  entropy T*S    EENTRO =        -0.00000058
  eigenvalues    EBANDS =        24.57555634
  atomic energy  EATOM  =       824.52251144
  Solvation  Ediel_sol  =         0.00000000
  ---------------------------------------------------
  free energy    TOTEN  =       -43.36141432 eV

  energy without entropy =      -43.36141373  energy(sigma->0) =      -43.36141402


--------------------------------------------------------------------------------------------------------




 average (electrostatic) potential at core
  the test charge radii are     0.9892
  (the norm of the test charge is              1.0000)
       1 -83.2447       2 -83.2447       3 -83.2447       4 -83.2447       5 -83.2447
       6 -83.2447       7 -83.2447       8 -83.2447
 
 
 
 E-fermi :   6.1122     XC(G=0):  -9.4108     alpha+bet :-11.9845


 k-point     1 :       0.0000    0.0000    0.0000
  band No.  band energies     occupation 
      1      -6.1304      2.00000
      2      -1.9845      2.00000
      3      -1.9845      2.00000
      4      -1.9845      2.00000
      5      -1.9845      2.00000
      6      -1.9845      2.00000
      7      -1.9845      2.00000
      8       2.9800      2.00000
      9       2.9800      2.00000
     10       2.9800      2.00000
     11       2.9800      2.00000
     12       2.9800      2.00000
     13       2.9800      2.00000
     14       5.8308      1.99993
     15       5.8308      1.99993
     16       5.8308      1.99993
     17       6.5430      0.00000
     18       6.5430      0.00000
     19       6.5430      0.00000
     20       6.5430      0.00000
     21       6.5430      0.00000
     22       6.5430      0.00000
     23       8.3985      0.00000
     24       8.3985      0.00000
     25       8.3985      0.00000
     26       9.2078      0.00000
     27      13.5658      0.00000
     28      13.5658      0.00000
     29      13.7918      0.00000
     30      15.9543      0.00000

 k-point     2 :       0.1667    0.0000    0.0000
  band No.  band energies     occupation 
      1      -6.0089      2.00000
      2      -3.1954      2.00000
      3      -1.9463      2.00000
      4      -1.9463      2.00000
      5      -1.9463      2.00000
      6      -1.9463      2.00000
      7      -0.6292      2.00000
      8       2.6737      2.00000
      9       2.6737      2.00000
     10       2.6737      2.00000
     11       2.6737      2.00000
     12       3.0897      2.00000
     13       3.0897      2.00000
     14       5.1386      2.00000
     15       5.4013      2.00000
     16       5.4013      2.00000
     17       6.4050      0.00003
     18       7.0095      0.00000
     19       7.1575      0.00000
     20       7.1575      0.00000
     21       7.1575      0.00000
     22       7.1575      0.00000
     23       8.1240      0.00000
     24       8.9775      0.00000
     25       8.9775      0.00000
     26       9.8463      0.00000
     27      12.7987      0.00000
     28      13.7005      0.00000
     29      14.3057      0.00000
     30      14.6747      0.00000

 k-point     3 :       0.3333    0.0000    0.0000
  band No.  band energies     occupation 
      1      -5.6461      2.00000
      2      -4.2253      2.00000
      3      -1.8644      2.00000
      4      -1.8644      2.00000
      5      -1.8644      2.00000
      6      -1.8644      2.00000
      7       0.8222      2.00000
      8       2.1875      2.00000
      9       2.1875      2.00000
     10       2.1875      2.00000
     11       2.1875      2.00000
     12       3.4148      2.00000
     13       3.4148      2.00000
     14       3.7952      2.00000
     15       4.6389      2.00000
     16       4.6389      2.00000
     17       6.5612      0.00000
     18       7.5394      0.00000
     19       7.8256      0.00000
     20       8.5839      0.00000
     21       8.5839      0.00000
     22       8.5839      0.00000
     23       8.5839      0.00000
     24      10.1398      0.00000
     25      10.1814      0.00000
     26      10.1814      0.00000
     27      12.4552      0.00000
     28      12.6034      0.00000
     29      12.6034      0.00000
     30      12.6034      0.00000

 k-point     4 :       0.5000    0.0000    0.0000
  band No.  band energies     occupation 
      1      -5.0480      2.00000
      2      -5.0480      2.00000
      3      -1.8204      2.00000
      4      -1.8204      2.00000
      5      -1.8204      2.00000
      6      -1.8204      2.00000
      7       1.9795      2.00000
      8       1.9795      2.00000
      9       1.9795      2.00000
     10       1.9795      2.00000
     11       2.3162      2.00000
     12       2.3162      2.00000
     13       3.9423      2.00000
     14       3.9423      2.00000
     15       3.9423      2.00000
     16       3.9423      2.00000
     17       6.9642      0.00000
     18       6.9642      0.00000
     19       8.9675      0.00000
     20       8.9675      0.00000
     21      10.1034      0.00000
     22      10.1034      0.00000
     23      10.1034      0.00000
     24      10.1034      0.00000
     25      10.8413      0.00000
     26      10.8413      0.00000
     27      10.8413      0.00000
     28      10.8413      0.00000
     29      11.5939      0.00000
     30      11.5939      0.00000

 k-point     5 :       0.1667    0.1667    0.0000
  band No.  band energies     occupation 
      1      -5.8884      2.00000
      2      -3.1180      2.00000
      3      -3.1180      2.00000
      4      -2.1254      2.00000
      5      -1.7217      2.00000
      6      -0.6657      2.00000
      7      -0.6657      2.00000
      8       1.9867      2.00000
      9       2.7091      2.00000
     10       2.7091      2.00000
     11       2.9056      2.00000
     12       2.9056      2.00000
     13       3.1731      2.00000
     14       4.2432      2.00000
     15       4.9681      2.00000
     16       5.7131      2.00000
     17       6.7662      0.00000
     18       7.0557      0.00000
     19       7.0557      0.00000
     20       7.5678      0.00000
     21       7.5678      0.00000
     22       8.3774      0.00000
     23       8.6482      0.00000
     24       8.7700      0.00000
     25       8.8027      0.00000
     26      10.6653      0.00000
     27      12.6662      0.00000
     28      13.2806      0.00000
     29      13.2806      0.00000
     30      13.4129      0.00000

 k-point     6 :       0.3333    0.1667    0.0000
  band No.  band energies     occupation 
      1      -5.5289      2.00000
      2      -4.1266      2.00000
      3      -2.9039      2.00000
      4      -2.3338      2.00000
      5      -1.4225      2.00000
      6      -0.8099      2.00000
      7       0.6468      2.00000
      8       1.5817      2.00000
      9       2.0640      2.00000
     10       2.6827      2.00000
     11       2.9929      2.00000
     12       3.0588      2.00000
     13       3.1062      2.00000
     14       3.4207      2.00000
     15       4.1982      2.00000
     16       5.1258      2.00000
     17       7.2265      0.00000
     18       7.5852      0.00000
     19       8.1729      0.00000
     20       8.3126      0.00000
     21       8.5175      0.00000
     22       8.9207      0.00000
     23       9.3859      0.00000
     24       9.9928      0.00000
     25      10.0057      0.00000
     26      10.7477      0.00000
     27      11.2224      0.00000
     28      11.9018      0.00000
     29      12.4995      0.00000
     30      12.7054      0.00000

 k-point     7 :       0.5000    0.1667    0.0000
  band No.  band energies     occupation 
      1      -4.9374      2.00000
      2      -4.9374      2.00000
      3      -2.6121      2.00000
      4      -2.6121      2.00000
      5      -1.0867      2.00000
      6      -1.0867      2.00000
      7       1.6234      2.00000
      8       1.6234      2.00000
      9       1.9131      2.00000
     10       1.9131      2.00000
     11       2.7535      2.00000
     12       2.7535      2.00000
     13       3.5026      2.00000
     14       3.5026      2.00000
     15       4.2055      2.00000
     16       4.2055      2.00000
     17       7.6248      0.00000
     18       7.6248      0.00000
     19       9.1602      0.00000
     20       9.1602      0.00000
     21       9.3638      0.00000
     22       9.3638      0.00000
     23      10.3110      0.00000
     24      10.3110      0.00000
     25      10.6559      0.00000
     26      10.6559      0.00000
     27      10.8372      0.00000
     28      10.8372      0.00000
     29      11.4745      0.00000
     30      11.4745      0.00000

 k-point     8 :       0.3333    0.3333    0.0000
  band No.  band energies     occupation 
      1      -5.1805      2.00000
      2      -3.8400      2.00000
      3      -3.8400      2.00000
      4      -2.8648      2.00000
      5      -0.9377      2.00000
      6       0.1892      2.00000
      7       0.1892      2.00000
      8       1.4194      2.00000
      9       2.1159      2.00000
     10       2.2628      2.00000
     11       2.2628      2.00000
     12       3.4198      2.00000
     13       3.5376      2.00000
     14       3.5376      2.00000
     15       3.7204      2.00000
     16       5.2669      2.00000
     17       7.4016      0.00000
     18       8.6884      0.00000
     19       8.6884      0.00000
     20       8.8782      0.00000
     21       9.3949      0.00000
     22       9.5491      0.00000
     23       9.5491      0.00000
     24       9.6827      0.00000
     25      10.0734      0.00000
     26      10.0734      0.00000
     27      11.5042      0.00000
     28      11.6372      0.00000
     29      11.9463      0.00000
     30      12.3172      0.00000

 k-point     9 :       0.5000    0.3333    0.0000
  band No.  band energies     occupation 
      1      -4.6109      2.00000
      2      -4.6109      2.00000
      3      -3.3978      2.00000
      4      -3.3978      2.00000
      5      -0.3844      2.00000
      6      -0.3844      2.00000
      7       1.1450      2.00000
      8       1.1450      2.00000
      9       1.6815      2.00000
     10       1.6815      2.00000
     11       2.7335      2.00000
     12       2.7335      2.00000
     13       3.7555      2.00000
     14       3.7555      2.00000
     15       4.5595      2.00000
     16       4.5595      2.00000
     17       8.3647      0.00000
     18       8.3647      0.00000
     19       9.0481      0.00000
     20       9.0481      0.00000
     21       9.1975      0.00000
     22       9.1975      0.00000
     23      10.4813      0.00000
     24      10.4813      0.00000
     25      10.5086      0.00000
     26      10.5086      0.00000
     27      11.1741      0.00000
     28      11.1741      0.00000
     29      11.3421      0.00000
     30      11.3421      0.00000

 k-point    10 :       0.5000    0.5000    0.0000
  band No.  band energies     occupation 
      1      -4.0858      2.00000
      2      -4.0858      2.00000
      3      -4.0858      2.00000
      4      -4.0858      2.00000
      5       0.3527      2.00000
      6       0.3527      2.00000
      7       0.3527      2.00000
      8       0.3527      2.00000
      9       2.0796      2.00000
     10       2.0796      2.00000
     11       2.0796      2.00000
     12       2.0796      2.00000
     13       4.5041      2.00000
     14       4.5041      2.00000
     15       4.5041      2.00000
     16       4.5041      2.00000
     17       8.2855      0.00000
     18       8.2855      0.00000
     19       8.2855      0.00000
     20       8.2855      0.00000
     21      10.6271      0.00000
     22      10.6271      0.00000
     23      10.6271      0.00000
     24      10.6271      0.00000
     25      10.9687      0.00000
     26      10.9687      0.00000
     27      10.9687      0.00000
     28      10.9687      0.00000
     29      11.9856      0.00000
     30      11.9856      0.00000

 k-point    11 :       0.1667    0.1667    0.1667
  band No.  band energies     occupation 
      1      -5.7691      2.00000
      2      -3.0610      2.00000
      3      -3.0610      2.00000
      4      -3.0610      2.00000
      5      -0.7326      2.00000
      6      -0.7326      2.00000
      7      -0.7326      2.00000
      8       2.2003      2.00000
      9       2.2003      2.00000
     10       2.2003      2.00000
     11       3.2782      2.00000
     12       3.2782      2.00000
     13       3.2782      2.00000
     14       3.4519      2.00000
     15       5.3811      2.00000
     16       5.3811      2.00000
     17       6.8969      0.00000
     18       6.8969      0.00000
     19       6.8969      0.00000
     20       8.1883      0.00000
     21       8.5515      0.00000
     22       8.5515      0.00000
     23       8.5515      0.00000
     24       9.0462      0.00000
     25       9.0462      0.00000
     26      11.2935      0.00000
     27      12.9287      0.00000
     28      12.9287      0.00000
     29      13.2922      0.00000
     30      13.2939      0.00000

 k-point    12 :       0.3333    0.1667    0.1667
  band No.  band energies     occupation 
      1      -5.4137      2.00000
      2      -4.0356      2.00000
      3      -2.9309      2.00000
      4      -2.9309      2.00000
      5      -0.9041      2.00000
      6      -0.9041      2.00000
      7       0.3766      2.00000
      8       1.8836      2.00000
      9       1.8836      2.00000
     10       2.4033      2.00000
     11       2.8448      2.00000
     12       3.2115      2.00000
     13       3.2115      2.00000
     14       3.5886      2.00000
     15       4.7247      2.00000
     16       4.9054      2.00000
     17       7.2659      0.00000
     18       7.7149      0.00000
     19       7.7149      0.00000
     20       8.2731      0.00000
     21       9.0521      0.00000
     22       9.0849      0.00000
     23       9.9029      0.00000
     24      10.1374      0.00000
     25      10.1374      0.00000
     26      11.2369      0.00000
     27      11.3067      0.00000
     28      11.3067      0.00000
     29      11.7506      0.00000
     30      12.0351      0.00000

 k-point    13 :       0.5000    0.1667    0.1667
  band No.  band energies     occupation 
      1      -4.8304      2.00000
      2      -4.8304      2.00000
      3      -2.8548      2.00000
      4      -2.8548      2.00000
      5      -1.0108      2.00000
      6      -1.0108      2.00000
      7       1.3966      2.00000
      8       1.3966      2.00000
      9       1.8227      2.00000
     10       1.8227      2.00000
     11       3.0707      2.00000
     12       3.0707      2.00000
     13       3.8395      2.00000
     14       3.8395      2.00000
     15       4.0861      2.00000
     16       4.0861      2.00000
     17       7.7995      0.00000
     18       7.7995      0.00000
     19       9.1896      0.00000
     20       9.1896      0.00000
     21       9.3946      0.00000
     22       9.3946      0.00000
     23       9.9034      0.00000
     24       9.9034      0.00000
     25      10.3589      0.00000
     26      10.3589      0.00000
     27      10.9125      0.00000
     28      10.9125      0.00000
     29      11.9380      0.00000
     30      11.9380      0.00000

 k-point    14 :       0.3333    0.3333    0.1667
  band No.  band energies     occupation 
      1      -5.0718      2.00000
      2      -3.7788      2.00000
      3      -3.7788      2.00000
      4      -3.0872      2.00000
      5      -0.9648      2.00000
      6      -0.1929      2.00000
      7      -0.1929      2.00000
      8       1.4312      2.00000
      9       1.9351      2.00000
     10       2.6091      2.00000
     11       2.6091      2.00000
     12       3.7059      2.00000
     13       3.7059      2.00000
     14       3.8072      2.00000
     15       4.1424      2.00000
     16       5.1488      2.00000
     17       7.5338      0.00000
     18       8.0789      0.00000
     19       8.0789      0.00000
     20       8.2717      0.00000
     21       9.3064      0.00000
     22       9.5807      0.00000
     23      10.0465      0.00000
     24      10.0465      0.00000
     25      10.6487      0.00000
     26      10.6487      0.00000
     27      11.2918      0.00000
     28      11.4598      0.00000
     29      11.8426      0.00000
     30      11.8426      0.00000

 k-point    15 :       0.5000    0.3333    0.1667
  band No.  band energies     occupation 
      1      -4.5168      2.00000
      2      -4.5168      2.00000
      3      -3.4174      2.00000
      4      -3.4174      2.00000
      5      -0.7125      2.00000
      6      -0.7125      2.00000
      7       0.5623      2.00000
      8       0.5623      2.00000
      9       2.2448      2.00000
     10       2.2448      2.00000
     11       3.3968      2.00000
     12       3.3968      2.00000
     13       3.8604      2.00000
     14       3.8604      2.00000
     15       4.5231      2.00000
     16       4.5231      2.00000
     17       8.4574      0.00000
     18       8.4574      0.00000
     19       8.4963      0.00000
     20       8.4963      0.00000
     21       9.2277      0.00000
     22       9.2277      0.00000
     23       9.5829      0.00000
     24       9.5829      0.00000
     25      10.4581      0.00000
     26      10.4581      0.00000
     27      11.3819      0.00000
     28      11.3819      0.00000
     29      11.6511      0.00000
     30      11.6511      0.00000

 k-point    16 :       0.5000    0.5000    0.1667
  band No.  band energies     occupation 
      1      -4.0236      2.00000
      2      -4.0236      2.00000
      3      -4.0236      2.00000
      4      -4.0236      2.00000
      5      -0.1737      2.00000
      6      -0.1737      2.00000
      7      -0.1737      2.00000
      8      -0.1737      2.00000
      9       2.7851      2.00000
     10       2.7851      2.00000
     11       2.7851      2.00000
     12       2.7851      2.00000
     13       4.5349      2.00000
     14       4.5349      2.00000
     15       4.5349      2.00000
     16       4.5349      2.00000
     17       8.2886      0.00000
     18       8.2886      0.00000
     19       8.2886      0.00000
     20       8.2886      0.00000
     21       9.9587      0.00000
     22       9.9587      0.00000
     23       9.9587      0.00000
     24       9.9587      0.00000
     25      10.0668      0.00000
     26      10.0668      0.00000
     27      10.0668      0.00000
     28      10.0668      0.00000
     29      13.1329      0.00000
     30      13.1330      0.00000

 k-point    17 :       0.3333    0.3333    0.3333
  band No.  band energies     occupation 
      1      -4.7530      2.00000
      2      -3.6385      2.00000
      3      -3.6385      2.00000
      4      -3.6385      2.00000
      5      -0.7732      2.00000
      6      -0.7732      2.00000
      7      -0.7732      2.00000
      8       0.4983      2.00000
      9       3.0556      2.00000
     10       3.0556      2.00000
     11       3.0556      2.00000
     12       4.0558      2.00000
     13       4.0558      2.00000
     14       4.0558      2.00000
     15       4.8315      2.00000
     16       4.8315      2.00000
     17       7.5998      0.00000
     18       7.8766      0.00000
     19       7.8766      0.00000
     20       7.8766      0.00000
     21       9.3429      0.00000
     22       9.3429      0.00000
     23       9.9519      0.00000
     24       9.9519      0.00000
     25       9.9519      0.00000
     26      10.4584      0.00000
     27      10.4584      0.00000
     28      10.4584      0.00000
     29      12.2592      0.00000
     30      12.2592      0.00000

 k-point    18 :       0.5000    0.3333    0.3333
  band No.  band energies     occupation 
      1      -4.2515      2.00000
      2      -4.2515      2.00000
      3      -3.5561      2.00000
      4      -3.5561      2.00000
      5      -1.0267      2.00000
      6      -1.0267      2.00000
      7      -0.2641      2.00000
      8      -0.2641      2.00000
      9       3.2343      2.00000
     10       3.2343      2.00000
     11       4.1846      2.00000
     12       4.1846      2.00000
     13       4.2560      2.00000
     14       4.2560      2.00000
     15       4.4251      2.00000
     16       4.4251      2.00000
     17       7.9654      0.00000
     18       7.9654      0.00000
     19       8.4205      0.00000
     20       8.4205      0.00000
     21       8.9507      0.00000
     22       8.9507      0.00000
     23       9.1001      0.00000
     24       9.1001      0.00000
     25       9.7299      0.00000
     26       9.7299      0.00000
     27      10.3308      0.00000
     28      10.3308      0.00000
     29      12.8564      0.00000
     30      12.8564      0.00000

 k-point    19 :       0.5000    0.5000    0.3333
  band No.  band energies     occupation 
      1      -3.8815      2.00000
      2      -3.8815      2.00000
      3      -3.8815      2.00000
      4      -3.8815      2.00000
      5      -0.8564      2.00000
      6      -0.8564      2.00000
      7      -0.8564      2.00000
      8      -0.8564      2.00000
      9       3.9556      2.00000
     10       3.9556      2.00000
     11       3.9556      2.00000
     12       3.9556      2.00000
     13       4.5994      2.00000
     14       4.5994      2.00000
     15       4.5994      2.00000
     16       4.5994      2.00000
     17       7.9129      0.00000
     18       7.9129      0.00000
     19       7.9129      0.00000
     20       7.9129      0.00000
     21       9.2178      0.00000
     22       9.2178      0.00000
     23       9.2178      0.00000
     24       9.2178      0.00000
     25       9.4193      0.00000
     26       9.4193      0.00000
     27       9.4193      0.00000
     28       9.4193      0.00000
     29      13.8656      0.00000
     30      13.8656      0.00000

 k-point    20 :       0.5000    0.5000    0.5000
  band No.  band energies     occupation 
      1      -3.7980      2.00000
      2      -3.7980      2.00000
      3      -3.7980      2.00000
      4      -3.7980      2.00000
      5      -1.1375      2.00000
      6      -1.1375      2.00000
      7      -1.1375      2.00000
      8      -1.1375      2.00000
      9       4.6335      2.00000
     10       4.6335      2.00000
     11       4.6335      2.00000
     12       4.6335      2.00000
     13       4.6335      2.00000
     14       4.6335      2.00000
     15       4.6335      2.00000
     16       4.6335      2.00000
     17       7.3755      0.00000
     18       7.3755      0.00000
     19       7.3755      0.00000
     20       7.3755      0.00000
     21       9.1771      0.00000
     22       9.1771      0.00000
     23       9.1771      0.00000
     24       9.1771      0.00000
     25       9.1771      0.00000
     26       9.1771      0.00000
     27       9.1771      0.00000
     28       9.1771      0.00000
     29      13.5627      0.00000
     30      13.5627      0.00000


--------------------------------------------------------------------------------------------------------


 soft charge-density along one line, spin component           1
         0         1         2         3         4         5         6         7         8         9
 total charge-density along one line
 
 pseudopotential strength for first ion, spin component:           1
 18.414  -0.001   0.000   0.000  -0.000  -0.000  -0.000   0.000
 -0.001   0.006  -0.000  -0.000   0.000   0.000   0.000  -0.000
  0.000  -0.000   4.179   0.000  -0.000  -0.005  -0.000   0.000
  0.000  -0.000   0.000   4.179  -0.000  -0.000  -0.005   0.000
 -0.000   0.000  -0.000  -0.000   4.179   0.000   0.000  -0.005
 -0.000   0.000  -0.005  -0.000   0.000   0.005   0.000  -0.000
 -0.000   0.000  -0.000  -0.005   0.000   0.000   0.005  -0.000
  0.000  -0.000   0.000   0.000  -0.005  -0.000  -0.000   0.005
 total augmentation occupancy for first ion, spin component:           1
  2.000   0.000   0.000   0.000   0.000   0.000   0.000   0.000
  0.000   0.000   0.000   0.000   0.000   0.000   0.000   0.000
  0.000   0.000   0.667   0.000   0.000   0.000   0.000   0.000
  0.000   0.000   0.000   0.667   0.000   0.000   0.000   0.000
  0.000   0.000   0.000   0.000   0.667   0.000   0.000   0.000
  0.000   0.000   0.000   0.000   0.000   0.000   0.000   0.000
  0.000   0.000   0.000   0.000   0.000   0.000   0.000   0.000
  0.000   0.000   0.000   0.000   0.000   0.000   0.000   0.000


------------------------ aborting loop because EDIFF is reached ----------------------------------------


    CHARGE:  cpu time    0.0110: real time    0.0112
    FORLOC:  cpu time    0.0010: real time    0.0006
    FORNL :  cpu time    0.0700: real time    0.0701
    STRESS:  cpu time    0.2320: real time    0.2328
    FORCOR:  cpu time    0.0060: real time    0.0059
    FORHAR:  cpu time    0.0020: real time    0.0015
    OFIELD:  cpu time    0.0000: real time    0.0000

  FORCE on cell =-STRESS in cart. coord.  units (eV):
  Direction    XX          YY          ZZ          XY          YZ          ZX
  --------------------------------------------------------------------------------------
  Alpha Z    13.45657    13.45657    13.45657
  Ewald    -304.75191  -304.75191  -304.75191    -0.00000    -0.00000     0.00000
  Hartree    19.88780    19.88780    19.88780    -0.00000    -0.00000    -0.00000
  E(xc)    -101.49908  -101.49908  -101.49908     0.00000    -0.00000     0.00000
  Local    -117.00066  -117.00066  -117.00066    -0.00000     0.00000    -0.00000
  n-local   311.51307   314.67454   308.35308    -2.46549    -2.06861    -1.14469
  augment   -46.60159   -46.60159   -46.60159     0.00000     0.00000     0.00000
  Kinetic   219.78513   231.16766   229.71040    -3.13044    -4.59933    -1.97302
  Fock        0.00000     0.00000     0.00000     0.00000     0.00000     0.00000
  -------------------------------------------------------------------------------------
  Total       1.89244     1.89244     1.89244    -0.00000    -0.00000    -0.00000
  in kB      18.93792    18.93792    18.93792    -0.00000    -0.00000    -0.00000
  external pressure =       18.94 kB  Pullay stress =        0.00 kB


 VOLUME and BASIS-vectors are now :
 -----------------------------------------------------------------------------
  energy-cutoff  :      318.95
  volume of cell :      160.10
      direct lattice vectors                 reciprocal lattice vectors
     5.429999828  0.000000000  0.000000000     0.184162068  0.000000000  0.000000000
     0.000000000  5.429999828  0.000000000     0.000000000  0.184162068  0.000000000
     0.000000000  0.000000000  5.429999828     0.000000000  0.000000000  0.184162068

  length of vectors
     5.429999828  5.429999828  5.429999828     0.184162068  0.184162068  0.184162068


 FORCES acting on ions
    electron-ion (+dipol)            ewald-force                    non-local-force                 convergence-correction
 -----------------------------------------------------------------------------------------------
   0.164E-13 0.233E-14 0.180E-13   -.355E-13 -.178E-13 -.355E-14   -.173E-17 0.304E-16 0.217E-16   -.472E-13 -.604E-13 -.101E-12
   0.170E-13 -.133E-13 0.742E-15   -.355E-13 -.213E-13 -.355E-14   0.390E-16 -.477E-17 0.867E-18   -.243E-12 0.194E-12 0.194E-12
   -.393E-14 -.151E-12 -.152E-12   -.355E-13 -.213E-13 -.355E-14   -.347E-16 0.312E-16 0.217E-16   0.124E-12 0.879E-13 0.647E-13
   -.105E-13 0.144E-14 -.358E-12   -.355E-13 -.178E-13 -.355E-14   -.954E-17 0.230E-16 -.867E-18   0.912E-13 0.482E-13 0.308E-12
   -.229E-13 -.101E-12 -.193E-12   0.329E-13 0.180E-13 0.333E-14   -.867E-17 -.208E-16 0.694E-17   0.244E-12 -.153E-12 -.320E-13
   -.137E-13 0.103E-12 0.265E-13   0.304E-13 0.180E-13 0.319E-14   0.260E-16 -.390E-16 -.269E-16   -.173E-12 -.147E-12 -.269E-12
   -.177E-13 0.106E-12 -.638E-14   0.330E-13 0.176E-13 0.386E-14   0.156E-16 -.243E-16 0.520E-17   -.314E-12 0.151E-12 0.597E-13
   -.288E-13 -.304E-12 -.130E-13   0.318E-13 0.176E-13 0.372E-14   0.191E-16 -.338E-16 -.165E-16   0.347E-12 -.113E-12 -.184E-12
 -----------------------------------------------------------------------------------------------
   -.641E-13 -.357E-12 -.676E-12   -.140E-13 -.702E-14 -.128E-15   0.451E-16 -.382E-16 0.121E-16   0.280E-13 0.960E-14 0.406E-13
 
 
 POSITION                                       TOTAL-FORCE (eV/Angst)
 -----------------------------------------------------------------------------------
      0.00000      0.00000      0.00000        -0.000000      0.000000      0.000000
      0.00000      2.71500      2.71500         0.000000      0.000000      0.000000
      2.71500      2.71500      0.00000         0.000000      0.000000      0.000000
      2.71500      0.00000      2.71500        -0.000000     -0.000000      0.000000
      4.07250      1.35750      4.07250        -0.000000     -0.000000     -0.000000
      1.35750      1.35750      1.35750        -0.000000     -0.000000     -0.000000
      1.35750      4.07250      4.07250         0.000000      0.000000     -0.000000
      4.07250      4.07250      1.35750        -0.000000     -0.000000     -0.000000
 -----------------------------------------------------------------------------------
    total drift:                               -0.000000     -0.000000     -0.000000


--------------------------------------------------------------------------------------------------------



  FREE ENERGIE OF THE ION-ELECTRON SYSTEM (eV)
  ---------------------------------------------------
  free  energy   TOTEN  =       -43.36141432 eV

  energy  without entropy=      -43.36141373  energy(sigma->0) =      -43.36141402
 


--------------------------------------------------------------------------------------------------------


    POTLOK:  cpu time    0.0070: real time    0.0070


--------------------------------------------------------------------------------------------------------


 writing wavefunctions
     LOOP+:  cpu time    0.8509: real time    0.8508


--------------------------------------------------------------------------------------------------------



 plasma frequency squared (from intraband transitions) (eV^2)
  --------------------------------------------------------------------------------------
       0.000       0.000       0.000
       0.000       0.000       0.000
       0.000       0.000       0.000

 electrical conductivity sigma (Mega S m-1) (frequency dependency in vasprun.xml)
  --------------------------------------------------------------------------------------
       0.000       0.000       0.000
       0.000       0.000       0.000
       0.000       0.000       0.000

 plasma frequency squared (from interband transitions, int dw w eps(2)(w)) (eV^2)
  --------------------------------------------------------------------------------------
     222.590       0.000       0.000       0.000       0.000       0.000
       0.000      -0.000     222.590       0.000       0.000      -0.000
       0.000      -0.000       0.000       0.000     222.590       0.000
  --------------------------------------------------------------------------------------
 sumrule: sum of plasma frequencies squared should yield (valence only):     275.597

 Anomalous Hall contribution (eV) 2/pi Imag((f_n-f_m)<u_m| d/dk_a u_n> <u_m| d/dk_b u_n>^*) 
  --------------------------------------------------------------------------------------
       0.000       0.000      -0.000
       0.000       0.000       0.000
       0.000      -0.000       0.000

  frequency dependent IMAGINARY DIELECTRIC FUNCTION (independent particle, no local field effects) density-density
     E(ev)      X         Y         Z        XY        YZ        ZX
  --------------------------------------------------------------------------------------------------------------
    0.000000    0.000000    0.000000    0.000000    0.000000    0.000000    0.000000
    0.265282    0.048672    0.048672    0.048672    0.000000   -0.000000   -0.000000
    0.530564    0.101006    0.101006    0.101006    0.000000   -0.000000   -0.000000
    0.795846    0.161487    0.161487    0.161487    0.000000   -0.000000   -0.000000
    1.061127    0.236645    0.236645    0.236645    0.000000   -0.000000   -0.000000
    1.326409    0.337492    0.337492    0.337492    0.000000   -0.000000   -0.000000
    1.591691    0.485453    0.485453    0.485453    0.000000   -0.000000   -0.000000
    1.856973    0.730259    0.730259    0.730259    0.000000   -0.000000   -0.000000
    2.122255    1.225288    1.225288    1.225288    0.000000   -0.000000   -0.000000
    2.387537    2.843553    2.843553    2.843553    0.000000   -0.000000   -0.000000
    2.652818   11.325569   11.325569   11.325569    0.000000   -0.000000   -0.000000
    2.918100   18.294054   18.294054   18.294054    0.000000    0.000000   -0.000000
    3.183382   20.449230   20.449230   20.449230   -0.000000   -0.000000    0.000000
    3.448664   27.054002   27.054002   27.054002    0.000000   -0.000000    0.000000
    3.713946   45.851925   45.851925   45.851925    0.000000   -0.000000    0.000000
    3.979228   24.389099   24.389099   24.389099    0.000000    0.000000   -0.000000
    4.244509   23.053249   23.053249   23.053249    0.000000   -0.000000   -0.000000
    4.509791   29.361618   29.361618   29.361618    0.000000    0.000000   -0.000000
    4.775073   18.037941   18.037941   18.037941    0.000000    0.000000    0.000000
    5.040355    9.287564    9.287564    9.287564    0.000000    0.000000   -0.000000
    5.305637    7.816146    7.816146    7.816146   -0.000000    0.000000   -0.000000
    5.570919    6.541043    6.541043    6.541043   -0.000000   -0.000000    0.000000
    5.836200    5.949381    5.949381    5.949381   -0.000000   -0.000000   -0.000000
    6.101482    5.006466    5.006466    5.006466    0.000000    0.000000    0.000000
    6.366764    7.389884    7.389884    7.389884    0.000000    0.000000   -0.000000
    6.632046    4.050034    4.050034    4.050034    0.000000    0.000000   -0.000000
    6.897328    3.472777    3.472777    3.472777    0.000000    0.000000   -0.000000
    7.162610    2.744593    2.744593    2.744593    0.000000    0.000000   -0.000000
    7.427891    2.522038    2.522038    2.522038    0.000000    0.000000   -0.000000
    7.693173    2.142968    2.142968    2.142968   -0.000000    0.000000   -0.000000
    7.958455    1.636077    1.636077    1.636077   -0.000000   -0.000000   -0.000000
    8.223737    1.685481    1.685481    1.685481   -0.000000    0.000000   -0.000000
    8.489019    1.645355    1.645355    1.645355   -0.000000    0.000000   -0.000000
    8.754301    1.090223    1.090223    1.090223   -0.000000    0.000000   -0.000000
    9.019582    0.804508    0.804508    0.804508   -0.000000   -0.000000    0.000000
    9.284864    1.046811    1.046811    1.046811    0.000000    0.000000   -0.000000
    9.550146    0.808195    0.808195    0.808195    0.000000    0.000000   -0.000000
    9.815428    0.458499    0.458499    0.458499    0.000000    0.000000   -0.000000
   10.080710    0.382800    0.382800    0.382800   -0.000000   -0.000000   -0.000000
   10.345992    0.361262    0.361262    0.361262   -0.000000   -0.000000   -0.000000
   10.611273    0.306312    0.306312    0.306312    0.000000    0.000000    0.000000
   10.876555    0.345489    0.345489    0.345489   -0.000000    0.000000   -0.000000
   11.141837    0.212249    0.212249    0.212249   -0.000000    0.000000    0.000000
   11.407119    0.215315    0.215315    0.215315    0.000000    0.000000    0.000000
   11.672401    0.178294    0.178294    0.178294    0.000000    0.000000    0.000000
   11.937683    0.201932    0.201932    0.201932    0.000000    0.000000    0.000000
   12.202964    0.137708    0.137708    0.137708    0.000000    0.000000   -0.000000
   12.468246    0.134667    0.134667    0.134667    0.000000   -0.000000   -0.000000
   12.733528    0.105399    0.105399    0.105399    0.000000   -0.000000   -0.000000
   12.998810    0.162726    0.162726    0.162726   -0.000000   -0.000000    0.000000
   13.264092    0.113485    0.113485    0.113485    0.000000    0.000000   -0.000000
   13.529374    0.087982    0.087982    0.087982    0.000000    0.000000   -0.000000
   13.794655    0.125665    0.125665    0.125665   -0.000000    0.000000   -0.000000
   14.059937    0.106697    0.106697    0.106697    0.000000    0.000000   -0.000000
   14.325219    0.085162    0.085162    0.085162   -0.000000    0.000000   -0.000000
   14.590501    0.088344    0.088344    0.088344    0.000000    0.000000   -0.000000
   14.855783    0.075236    0.075236    0.075236    0.000000    0.000000   -0.000000
   15.121065    0.056584    0.056584    0.056584   -0.000000    0.000000   -0.000000
   15.386346    0.040091    0.040091    0.040091    0.000000   -0.000000   -0.000000
   15.651628    0.045476    0.045476    0.045476    0.000000   -0.000000   -0.000000
   15.916910    0.035182    0.035182    0.035182    0.000000   -0.000000    0.000000
   16.182192    0.024059    0.024059    0.024059    0.000000   -0.000000    0.000000
   16.447474    0.023513    0.023513    0.023513    0.000000   -0.000000    0.000000
   16.712756    0.016104    0.016104    0.016104    0.000000   -0.000000   -0.000000
   16.978037    0.013807    0.013807    0.013807    0.000000   -0.000000   -0.000000
   17.243319    0.012763    0.012763    0.012763    0.000000    0.000000   -0.000000
   17.508601    0.011138    0.011138    0.011138    0.000000    0.000000   -0.000000
   17.773883    0.010690    0.010690    0.010690    0.000000    0.000000   -0.000000
   18.039165    0.009909    0.009909    0.009909    0.000000    0.000000   -0.000000
   18.304447    0.009264    0.009264    0.009264    0.000000    0.000000   -0.000000
   18.569728    0.008693    0.008693    0.008693    0.000000    0.000000   -0.000000
   18.835010    0.008232    0.008232    0.008232    0.000000    0.000000   -0.000000
   19.100292    0.007803    0.007803    0.007803    0.000000    0.000000   -0.000000
   19.365574    0.007441    0.007441    0.007441    0.000000    0.000000   -0.000000
   19.630856    0.007064    0.007064    0.007064    0.000000    0.000000   -0.000000
   19.896138    0.006735    0.006735    0.006735    0.000000    0.000000   -0.000000
   20.161419    0.006433    0.006433    0.006433    0.000000    0.000000   -0.000000
   20.426701    0.006150    0.006150    0.006150    0.000000    0.000000   -0.000000
   20.691983    0.005880    0.005880    0.005880    0.000000    0.000000   -0.000000
   20.957265    0.005630    0.005630    0.005630    0.000000    0.000000   -0.000000
   21.222547    0.005395    0.005395    0.005395    0.000000    0.000000   -0.000000
   21.487829    0.005173    0.005173    0.005173    0.000000    0.000000   -0.000000
   21.753110    0.004965    0.004965    0.004965    0.000000    0.000000   -0.000000
   22.018392    0.004768    0.004768    0.004768    0.000000    0.000000   -0.000000
   22.283674    0.004582    0.004582    0.004582    0.000000    0.000000   -0.000000
   22.548956    0.004405    0.004405    0.004405    0.000000    0.000000   -0.000000
   22.814238    0.004239    0.004239    0.004239    0.000000    0.000000   -0.000000
   23.079520    0.004080    0.004080    0.004080    0.000000    0.000000   -0.000000
   23.344801    0.003930    0.003930    0.003930    0.000000   -0.000000   -0.000000
   23.610083    0.003788    0.003788    0.003788    0.000000   -0.000000   -0.000000
   23.875365    0.003652    0.003652    0.003652    0.000000   -0.000000   -0.000000
   24.140647    0.003523    0.003523    0.003523    0.000000   -0.000000   -0.000000
   24.405929    0.003400    0.003400    0.003400    0.000000   -0.000000   -0.000000
   24.671211    0.003283    0.003283    0.003283    0.000000   -0.000000   -0.000000
   24.936492    0.003172    0.003172    0.003172    0.000000   -0.000000   -0.000000
   25.201774    0.003065    0.003065    0.003065    0.000000   -0.000000   -0.000000
   25.467056    0.002964    0.002964    0.002964    0.000000   -0.000000   -0.000000
   25.732338    0.002867    0.002867    0.002867    0.000000   -0.000000   -0.000000
   25.997620    0.002774    0.002774    0.002774    0.000000   -0.000000   -0.000000
   26.262902    0.002685    0.002685    0.002685    0.000000   -0.000000   -0.000000

  frequency dependent      REAL DIELECTRIC FUNCTION (independent particle, no local field effects) density-density
     E(ev)        X           Y           Z          XY          YZ          ZX
  --------------------------------------------------------------------------------------------------------------
    0.000000   13.491147   13.491147   13.491147    0.000000   -0.000000    0.000000
    0.265282   13.555093   13.555093   13.555093    0.000000   -0.000000    0.000000
    0.530564   13.751658   13.751658   13.751658    0.000000   -0.000000    0.000000
    0.795846   14.096050   14.096050   14.096050    0.000000   -0.000000    0.000000
    1.061127   14.617520   14.617520   14.617520    0.000000   -0.000000    0.000000
    1.326409   15.367362   15.367362   15.367362    0.000000   -0.000000    0.000000
    1.591691   16.436660   16.436660   16.436660    0.000000   -0.000000    0.000000
    1.856973   18.000058   18.000058   18.000058    0.000000   -0.000000    0.000000
    2.122255   20.447805   20.447805   20.447805    0.000000   -0.000000    0.000000
    2.387537   24.855904   24.855904   24.855904    0.000000   -0.000000   -0.000000
    2.652818   30.373185   30.373185   30.373185    0.000000   -0.000000   -0.000000
    2.918100   24.620429   24.620429   24.620429    0.000000   -0.000000    0.000000
    3.183382   20.262653   20.262653   20.262653    0.000000    0.000000    0.000000
    3.448664   26.714344   26.714344   26.714344    0.000000    0.000000    0.000000
    3.713946    4.313042    4.313042    4.313042   -0.000000   -0.000000   -0.000000
    3.979228   -6.355399   -6.355399   -6.355399   -0.000000   -0.000000   -0.000000
    4.244509   -1.444013   -1.444013   -1.444013   -0.000000    0.000000   -0.000000
    4.509791   -6.123994   -6.123994   -6.123994    0.000000    0.000000   -0.000000
    4.775073  -17.565809  -17.565809  -17.565809   -0.000000   -0.000000   -0.000000
    5.040355  -12.500197  -12.500197  -12.500197   -0.000000   -0.000000   -0.000000
    5.305637   -9.807870   -9.807870   -9.807870   -0.000000   -0.000000   -0.000000
    5.570919   -8.337448   -8.337448   -8.337448   -0.000000    0.000000   -0.000000
    5.836200   -7.032670   -7.032670   -7.032670   -0.000000    0.000000   -0.000000
    6.101482   -5.400469   -5.400469   -5.400469   -0.000000    0.000000   -0.000000
    6.366764   -5.801707   -5.801707   -5.801707   -0.000000   -0.000000   -0.000000
    6.632046   -7.466894   -7.466894   -7.466894   -0.000000   -0.000000   -0.000000
    6.897328   -5.683880   -5.683880   -5.683880   -0.000000   -0.000000   -0.000000
    7.162610   -5.396378   -5.396378   -5.396378   -0.000000   -0.000000   -0.000000
    7.427891   -4.664712   -4.664712   -4.664712   -0.000000   -0.000000   -0.000000
    7.693173   -4.682002   -4.682002   -4.682002   -0.000000   -0.000000   -0.000000
    7.958455   -3.701489   -3.701489   -3.701489   -0.000000   -0.000000   -0.000000
    8.223737   -3.620414   -3.620414   -3.620414   -0.000000   -0.000000    0.000000
    8.489019   -3.483621   -3.483621   -3.483621   -0.000000   -0.000000   -0.000000
    8.754301   -3.256562   -3.256562   -3.256562   -0.000000   -0.000000    0.000000
    9.019582   -2.841914   -2.841914   -2.841914   -0.000000   -0.000000    0.000000
    9.284864   -2.508626   -2.508626   -2.508626   -0.000000   -0.000000    0.000000
    9.550146   -2.660514   -2.660514   -2.660514   -0.000000   -0.000000    0.000000
    9.815428   -2.315116   -2.315116   -2.315116   -0.000000   -0.000000    0.000000
   10.080710   -2.016994   -2.016994   -2.016994   -0.000000   -0.000000    0.000000
   10.345992   -1.775814   -1.775814   -1.775814   -0.000000   -0.000000    0.000000
   10.611273   -1.582041   -1.582041   -1.582041   -0.000000    0.000000    0.000000
   10.876555   -1.475700   -1.475700   -1.475700   -0.000000   -0.000000   -0.000000
   11.141837   -1.342032   -1.342032   -1.342032   -0.000000   -0.000000    0.000000
   11.407119   -1.178446   -1.178446   -1.178446   -0.000000   -0.000000   -0.000000
   11.672401   -1.023427   -1.023427   -1.023427   -0.000000   -0.000000   -0.000000
   11.937683   -0.967661   -0.967661   -0.967661   -0.000000   -0.000000   -0.000000
   12.202964   -0.846504   -0.846504   -0.846504   -0.000000   -0.000000   -0.000000
   12.468246   -0.738730   -0.738730   -0.738730   -0.000000   -0.000000   -0.000000
   12.733528   -0.652845   -0.652845   -0.652845   -0.000000   -0.000000   -0.000000
   12.998810   -0.563231   -0.563231   -0.563231   -0.000000   -0.000000   -0.000000
   13.264092   -0.530492   -0.530492   -0.530492   -0.000000   -0.000000   -0.000000
   13.529374   -0.428904   -0.428904   -0.428904   -0.000000   -0.000000    0.000000
   13.794655   -0.375818   -0.375818   -0.375818   -0.000000   -0.000000   -0.000000
   14.059937   -0.344808   -0.344808   -0.344808   -0.000000   -0.000000   -0.000000
   14.325219   -0.277635   -0.277635   -0.277635   -0.000000   -0.000000   -0.000000
   14.590501   -0.238884   -0.238884   -0.238884   -0.000000   -0.000000   -0.000000
   14.855783   -0.195986   -0.195986   -0.195986   -0.000000   -0.000000   -0.000000
   15.121065   -0.159399   -0.159399   -0.159399   -0.000000   -0.000000   -0.000000
   15.386346   -0.102079   -0.102079   -0.102079   -0.000000   -0.000000   -0.000000
   15.651628   -0.057474   -0.057474   -0.057474   -0.000000   -0.000000   -0.000000
   15.916910   -0.026513   -0.026513   -0.026513   -0.000000   -0.000000   -0.000000
   16.182192    0.016264    0.016264    0.016264   -0.000000   -0.000000   -0.000000
   16.447474    0.053314    0.053314    0.053314   -0.000000   -0.000000   -0.000000
   16.712756    0.089092    0.089092    0.089092   -0.000000   -0.000000   -0.000000
   16.978037    0.125271    0.125271    0.125271   -0.000000   -0.000000   -0.000000
   17.243319    0.156190    0.156190    0.156190   -0.000000   -0.000000   -0.000000
   17.508601    0.186572    0.186572    0.186572   -0.000000   -0.000000   -0.000000
   17.773883    0.214823    0.214823    0.214823   -0.000000   -0.000000   -0.000000
   18.039165    0.240817    0.240817    0.240817   -0.000000   -0.000000   -0.000000
   18.304447    0.265725    0.265725    0.265725   -0.000000   -0.000000   -0.000000
   18.569728    0.289324    0.289324    0.289324   -0.000000   -0.000000   -0.000000
   18.835010    0.311612    0.311612    0.311612   -0.000000   -0.000000   -0.000000
   19.100292    0.332825    0.332825    0.332825   -0.000000   -0.000000   -0.000000
   19.365574    0.352946    0.352946    0.352946   -0.000000   -0.000000   -0.000000
   19.630856    0.372128    0.372128    0.372128   -0.000000   -0.000000   -0.000000
   19.896138    0.390421    0.390421    0.390421   -0.000000   -0.000000   -0.000000
   20.161419    0.407876    0.407876    0.407876   -0.000000   -0.000000   -0.000000
   20.426701    0.424542    0.424542    0.424542   -0.000000   -0.000000   -0.000000
[...]
   23.344801    0.568159    0.568159    0.568159   -0.000000   -0.000000   -0.000000
   23.610083    0.578394    0.578394    0.578394   -0.000000   -0.000000   -0.000000
   23.875365    0.588259    0.588259    0.588259   -0.000000   -0.000000   -0.000000
   24.140647    0.597774    0.597774    0.597774   -0.000000   -0.000000   -0.000000
   24.405929    0.606955    0.606955    0.606955   -0.000000   -0.000000   -0.000000
   24.671211    0.615818    0.615818    0.615818   -0.000000   -0.000000   -0.000000
   24.936492    0.624378    0.624378    0.624378   -0.000000   -0.000000   -0.000000
   25.201774    0.632649    0.632649    0.632649   -0.000000   -0.000000   -0.000000
   25.467056    0.640644    0.640644    0.640644   -0.000000   -0.000000   -0.000000
   25.732338    0.648376    0.648376    0.648376   -0.000000   -0.000000   -0.000000
   25.997620    0.655856    0.655856    0.655856   -0.000000   -0.000000   -0.000000
   26.262902    0.663096    0.663096    0.663096   -0.000000   -0.000000   -0.000000

  frequency dependent IMAGINARY DIELECTRIC FUNCTION (independent particle, no local field effects) current-current (2nd set in vasprun.xml)
     E(ev)      X         Y         Z        XY        YZ        ZX
  --------------------------------------------------------------------------------------------------------------
    0.000000   94.286720   94.286720   94.286720   -0.000000   -0.000000   -0.000000
    0.265282    9.524888    9.524888    9.524888   -0.000000   -0.000000   -0.000000
    0.530564    4.913687    4.913687    4.913687   -0.000000   -0.000000   -0.000000
    0.795846    3.457093    3.457093    3.457093   -0.000000   -0.000000   -0.000000
    1.061127    2.807420    2.807420    2.807420   -0.000000   -0.000000   -0.000000
    1.326409    2.508271    2.508271    2.508271   -0.000000   -0.000000   -0.000000
    1.591691    2.430503    2.430503    2.430503   -0.000000   -0.000000    0.000000
    1.856973    2.568999    2.568999    2.568999   -0.000000   -0.000000    0.000000
    2.122255    3.072967    3.072967    3.072967   -0.000000   -0.000000    0.000000
    2.387537    4.897505    4.897505    4.897505   -0.000000   -0.000000    0.000000
    2.652818   13.748344   13.748344   13.748344   -0.000000   -0.000000    0.000000
    2.918100   19.946708   19.946708   19.946708   -0.000000   -0.000000    0.000000
    3.183382   21.604097   21.604097   21.604097   -0.000000   -0.000000    0.000000
    3.448664   28.779633   28.779633   28.779633   -0.000000   -0.000000   -0.000000
    3.713946   45.903194   45.903194   45.903194   -0.000000   -0.000000   -0.000000
    3.979228   23.903530   23.903530   23.903530   -0.000000   -0.000000   -0.000000
    4.244509   22.942945   22.942945   22.942945    0.000000   -0.000000    0.000000
    4.509791   29.060547   29.060547   29.060547    0.000000   -0.000000    0.000000
    4.775073   17.140484   17.140484   17.140484    0.000000   -0.000000   -0.000000
    5.040355    8.735180    8.735180    8.735180   -0.000000   -0.000000   -0.000000
    5.305637    7.393978    7.393978    7.393978   -0.000000   -0.000000   -0.000000
    5.570919    6.191529    6.191529    6.191529   -0.000000   -0.000000   -0.000000
    5.836200    5.666268    5.666268    5.666268   -0.000000   -0.000000   -0.000000
    6.101482    4.799994    4.799994    4.799994   -0.000000   -0.000000    0.000000
    6.366764    7.176798    7.176798    7.176798    0.000000   -0.000000    0.000000
    6.632046    3.776043    3.776043    3.776043    0.000000   -0.000000    0.000000
    6.897328    3.278568    3.278568    3.278568    0.000000   -0.000000   -0.000000
    7.162610    2.560957    2.560957    2.560957   -0.000000   -0.000000   -0.000000
    7.427891    2.368736    2.368736    2.368736   -0.000000   -0.000000   -0.000000
    7.693173    1.989297    1.989297    1.989297   -0.000000   -0.000000   -0.000000
    7.958455    1.520645    1.520645    1.520645   -0.000000    0.000000    0.000000
    8.223737    1.571392    1.571392    1.571392   -0.000000   -0.000000    0.000000
    8.489019    1.538075    1.538075    1.538075    0.000000   -0.000000   -0.000000
    8.754301    0.992034    0.992034    0.992034    0.000000   -0.000000   -0.000000
    9.019582    0.718580    0.718580    0.718580    0.000000   -0.000000    0.000000
    9.284864    0.971771    0.971771    0.971771    0.000000    0.000000    0.000000
    9.550146    0.729492    0.729492    0.729492    0.000000    0.000000   -0.000000
    9.815428    0.390517    0.390517    0.390517    0.000000    0.000000   -0.000000
   10.080710    0.322653    0.322653    0.322653   -0.000000   -0.000000   -0.000000
   10.345992    0.307596    0.307596    0.307596   -0.000000   -0.000000   -0.000000
   10.611273    0.257690    0.257690    0.257690   -0.000000   -0.000000    0.000000
   10.876555    0.299628    0.299628    0.299628   -0.000000   -0.000000    0.000000
   11.141837    0.169932    0.169932    0.169932   -0.000000   -0.000000    0.000000
   11.407119    0.176994    0.176994    0.176994   -0.000000    0.000000    0.000000
   11.672401    0.143806    0.143806    0.143806   -0.000000   -0.000000    0.000000
   11.937683    0.168687    0.168687    0.168687   -0.000000   -0.000000    0.000000
   12.202964    0.107453    0.107453    0.107453   -0.000000   -0.000000    0.000000
   12.468246    0.106833    0.106833    0.106833   -0.000000   -0.000000    0.000000
   12.733528    0.079358    0.079358    0.079358   -0.000000    0.000000    0.000000
   12.998810    0.138749    0.138749    0.138749    0.000000    0.000000    0.000000
   13.264092    0.090306    0.090306    0.090306    0.000000    0.000000    0.000000
   13.529374    0.066936    0.066936    0.066936    0.000000    0.000000    0.000000
   13.794655    0.105715    0.105715    0.105715    0.000000   -0.000000   -0.000000
   14.059937    0.087483    0.087483    0.087483   -0.000000    0.000000   -0.000000
   14.325219    0.067364    0.067364    0.067364    0.000000    0.000000   -0.000000
   14.590501    0.071317    0.071317    0.071317    0.000000    0.000000    0.000000
   14.855783    0.059112    0.059112    0.059112    0.000000    0.000000    0.000000
   15.121065    0.041173    0.041173    0.041173    0.000000   -0.000000    0.000000
   15.386346    0.025755    0.025755    0.025755   -0.000000   -0.000000    0.000000
   15.651628    0.031962    0.031962    0.031962   -0.000000   -0.000000    0.000000
   15.916910    0.022243    0.022243    0.022243    0.000000    0.000000   -0.000000
   16.182192    0.011887    0.011887    0.011887   -0.000000    0.000000   -0.000000
   16.447474    0.011984    0.011984    0.011984   -0.000000    0.000000   -0.000000
   16.712756    0.005192    0.005192    0.005192   -0.000000   -0.000000   -0.000000
   16.978037    0.003504    0.003504    0.003504   -0.000000   -0.000000    0.000000
   17.243319    0.002970    0.002970    0.002970   -0.000000   -0.000000    0.000000
   17.508601    0.001845    0.001845    0.001845    0.000000   -0.000000    0.000000
   17.773883    0.001854    0.001854    0.001854    0.000000   -0.000000   -0.000000
   18.039165    0.001490    0.001490    0.001490   -0.000000   -0.000000    0.000000
   18.304447    0.001240    0.001240    0.001240   -0.000000   -0.000000    0.000000
   18.569728    0.001038    0.001038    0.001038   -0.000000   -0.000000    0.000000
   18.835010    0.000921    0.000921    0.000921   -0.000000   -0.000000    0.000000
   19.100292    0.000817    0.000817    0.000817   -0.000000   -0.000000    0.000000
   19.365574    0.000758    0.000758    0.000758   -0.000000   -0.000000    0.000000
   19.630856    0.000666    0.000666    0.000666   -0.000000   -0.000000    0.000000
   19.896138    0.000607    0.000607    0.000607   -0.000000   -0.000000    0.000000
   20.161419    0.000559    0.000559    0.000559   -0.000000   -0.000000    0.000000
   20.426701    0.000515    0.000515    0.000515   -0.000000   -0.000000    0.000000
   20.691983    0.000472    0.000472    0.000472   -0.000000   -0.000000    0.000000
   20.957265    0.000435    0.000435    0.000435   -0.000000   -0.000000    0.000000
   21.222547    0.000403    0.000403    0.000403   -0.000000   -0.000000    0.000000
   21.487829    0.000374    0.000374    0.000374   -0.000000   -0.000000    0.000000
   21.753110    0.000347    0.000347    0.000347   -0.000000   -0.000000    0.000000
   22.018392    0.000323    0.000323    0.000323   -0.000000   -0.000000    0.000000
   22.283674    0.000301    0.000301    0.000301   -0.000000   -0.000000    0.000000
   22.548956    0.000281    0.000281    0.000281   -0.000000   -0.000000    0.000000
   22.814238    0.000263    0.000263    0.000263   -0.000000   -0.000000    0.000000
   23.079520    0.000246    0.000246    0.000246   -0.000000   -0.000000    0.000000
   23.344801    0.000230    0.000230    0.000230   -0.000000   -0.000000    0.000000
   23.610083    0.000216    0.000216    0.000216   -0.000000   -0.000000    0.000000
   23.875365    0.000203    0.000203    0.000203   -0.000000   -0.000000    0.000000
   24.140647    0.000191    0.000191    0.000191   -0.000000   -0.000000    0.000000
   24.405929    0.000179    0.000179    0.000179   -0.000000   -0.000000    0.000000
   24.671211    0.000169    0.000169    0.000169   -0.000000   -0.000000    0.000000
   24.936492    0.000159    0.000159    0.000159   -0.000000   -0.000000    0.000000
   25.201774    0.000150    0.000150    0.000150   -0.000000   -0.000000    0.000000
   25.467056    0.000141    0.000141    0.000141   -0.000000   -0.000000    0.000000
   25.732338    0.000134    0.000134    0.000134   -0.000000   -0.000000    0.000000
   25.997620    0.000126    0.000126    0.000126   -0.000000   -0.000000    0.000000
   26.262902    0.000119    0.000119    0.000119   -0.000000   -0.000000    0.000000

  frequency dependent      REAL DIELECTRIC FUNCTION (independent particle, no local field effects) current-current (2nd set in vasprun.xml)
     E(ev)        X           Y           Z          XY          YZ          ZX
  --------------------------------------------------------------------------------------------------------------
    0.000000   13.469269   13.469269   13.469269   -0.000000   -0.000000   -0.000000
    0.265282   13.532334   13.532334   13.532334   -0.000000   -0.000000   -0.000000
    0.530564   13.728123   13.728123   13.728123   -0.000000   -0.000000   -0.000000
    0.795846   14.071108   14.071108   14.071108   -0.000000   -0.000000   -0.000000
    1.061127   14.590329   14.590329   14.590329   -0.000000   -0.000000   -0.000000
    1.326409   15.336667   15.336667   15.336667   -0.000000   -0.000000   -0.000000
    1.591691   16.400345   16.400345   16.400345   -0.000000   -0.000000   -0.000000
    1.856973   17.953924   17.953924   17.953924   -0.000000   -0.000000   -0.000000
    2.122255   20.380773   20.380773   20.380773   -0.000000   -0.000000    0.000000
    2.387537   24.701306   24.701306   24.701306   -0.000000   -0.000000    0.000000
    2.652818   29.501205   29.501205   29.501205   -0.000000   -0.000000    0.000000
    2.918100   23.349282   23.349282   23.349282   -0.000000   -0.000000   -0.000000
    3.183382   18.993125   18.993125   18.993125   -0.000000   -0.000000   -0.000000
    3.448664   25.193681   25.193681   25.193681   -0.000000   -0.000000   -0.000000
    3.713946    1.461433    1.461433    1.461433    0.000000    0.000000    0.000000
    3.979228   -7.489403   -7.489403   -7.489403    0.000000    0.000000    0.000000
    4.244509   -2.516630   -2.516630   -2.516630    0.000000    0.000000    0.000000
    4.509791   -7.570263   -7.570263   -7.570263    0.000000    0.000000    0.000000
    4.775073  -18.305277  -18.305277  -18.305277   -0.000000    0.000000   -0.000000
    5.040355  -12.818136  -12.818136  -12.818136   -0.000000    0.000000    0.000000
    5.305637  -10.081533  -10.081533  -10.081533    0.000000    0.000000    0.000000
    5.570919   -8.556298   -8.556298   -8.556298    0.000000    0.000000    0.000000
    5.836200   -7.231336   -7.231336   -7.231336    0.000000    0.000000    0.000000
    6.101482   -5.546199   -5.546199   -5.546199    0.000000    0.000000    0.000000
    6.366764   -6.059335   -6.059335   -6.059335    0.000000   -0.000000    0.000000
    6.632046   -7.573649   -7.573649   -7.573649    0.000000    0.000000   -0.000000
    6.897328   -5.782268   -5.782268   -5.782268    0.000000    0.000000   -0.000000
    7.162610   -5.466295   -5.466295   -5.466295    0.000000    0.000000    0.000000
    7.427891   -4.729154   -4.729154   -4.729154    0.000000    0.000000    0.000000
    7.693173   -4.735236   -4.735236   -4.735236    0.000000    0.000000    0.000000
    7.958455   -3.737646   -3.737646   -3.737646    0.000000    0.000000    0.000000
    8.223737   -3.658608   -3.658608   -3.658608    0.000000    0.000000   -0.000000
    8.489019   -3.522757   -3.522757   -3.522757    0.000000    0.000000   -0.000000
    8.754301   -3.278186   -3.278186   -3.278186    0.000000    0.000000    0.000000
    9.019582   -2.855571   -2.855571   -2.855571    0.000000    0.000000    0.000000
    9.284864   -2.530756   -2.530756   -2.530756    0.000000    0.000000    0.000000
    9.550146   -2.676019   -2.676019   -2.676019    0.000000    0.000000   -0.000000
    9.815428   -2.322030   -2.322030   -2.322030    0.000000    0.000000    0.000000
   10.080710   -2.022777   -2.022777   -2.022777    0.000000    0.000000    0.000000
   10.345992   -1.781525   -1.781525   -1.781525    0.000000    0.000000    0.000000
   10.611273   -1.586331   -1.586331   -1.586331    0.000000    0.000000    0.000000
   10.876555   -1.481450   -1.481450   -1.481450    0.000000    0.000000   -0.000000
   11.141837   -1.344464   -1.344464   -1.344464    0.000000    0.000000    0.000000
   11.407119   -1.181402   -1.181402   -1.181402    0.000000    0.000000    0.000000
   11.672401   -1.025408   -1.025408   -1.025408    0.000000    0.000000    0.000000
   11.937683   -0.970424   -0.970424   -0.970424    0.000000    0.000000    0.000000
   12.202964   -0.847886   -0.847886   -0.847886    0.000000    0.000000    0.000000
   12.468246   -0.740158   -0.740158   -0.740158    0.000000    0.000000    0.000000
   12.733528   -0.653606   -0.653606   -0.653606    0.000000    0.000000    0.000000
   12.998810   -0.565405   -0.565405   -0.565405    0.000000    0.000000    0.000000
   13.264092   -0.531564   -0.531564   -0.531564    0.000000    0.000000    0.000000
   13.529374   -0.429487   -0.429487   -0.429487    0.000000    0.000000   -0.000000
   13.794655   -0.377227   -0.377227   -0.377227    0.000000    0.000000    0.000000
   14.059937   -0.345864   -0.345864   -0.345864    0.000000    0.000000    0.000000
   14.325219   -0.278307   -0.278307   -0.278307    0.000000    0.000000    0.000000
   14.590501   -0.239676   -0.239676   -0.239676    0.000000    0.000000    0.000000
   14.855783   -0.196585   -0.196585   -0.196585    0.000000    0.000000    0.000000
   15.121065   -0.159728   -0.159728   -0.159728    0.000000    0.000000    0.000000
   15.386346   -0.102168   -0.102168   -0.102168    0.000000    0.000000    0.000000
   15.651628   -0.057705   -0.057705   -0.057705    0.000000    0.000000    0.000000
   15.916910   -0.026595   -0.026595   -0.026595    0.000000    0.000000    0.000000
   16.182192    0.016331    0.016331    0.016331    0.000000    0.000000    0.000000
   16.447474    0.053344    0.053344    0.053344    0.000000    0.000000    0.000000
   16.712756    0.089221    0.089221    0.089221    0.000000    0.000000    0.000000
   16.978037    0.125414    0.125414    0.125414    0.000000    0.000000    0.000000
   17.243319    0.156332    0.156332    0.156332    0.000000    0.000000    0.000000
   17.508601    0.186724    0.186724    0.186724    0.000000    0.000000    0.000000
   17.773883    0.214968    0.214968    0.214968    0.000000    0.000000    0.000000
   18.039165    0.240963    0.240963    0.240963    0.000000    0.000000    0.000000
   18.304447    0.265870    0.265870    0.265870    0.000000    0.000000    0.000000
   18.569728    0.289467    0.289467    0.289467    0.000000    0.000000    0.000000
   18.835010    0.311752    0.311752    0.311752    0.000000    0.000000    0.000000
   19.100292    0.332963    0.332963    0.332963    0.000000    0.000000    0.000000
   19.365574    0.353081    0.353081    0.353081    0.000000    0.000000    0.000000
   19.630856    0.372261    0.372261    0.372261    0.000000    0.000000    0.000000
   19.896138    0.390551    0.390551    0.390551    0.000000    0.000000    0.000000
   20.161419    0.408004    0.408004    0.408004    0.000000    0.000000    0.000000
   20.426701    0.424667    0.424667    0.424667    0.000000    0.000000    0.000000
   20.691983    0.440610    0.440610    0.440610    0.000000    0.000000    0.000000
   20.957265    0.455869    0.455869    0.455869    0.000000    0.000000    0.000000
   21.222547    0.470484    0.470484    0.470484    0.000000    0.000000    0.000000
   21.487829    0.484495    0.484495    0.484495    0.000000    0.000000    0.000000
   21.753110    0.497936    0.497936    0.497936    0.000000    0.000000    0.000000
   22.018392    0.510839    0.510839    0.510839    0.000000    0.000000    0.000000
   22.283674    0.523234    0.523234    0.523234    0.000000    0.000000    0.000000
   22.548956    0.535150    0.535150    0.535150    0.000000    0.000000    0.000000
   22.814238    0.546610    0.546610    0.546610    0.000000    0.000000    0.000000
   23.079520    0.557639    0.557639    0.557639    0.000000    0.000000    0.000000
   23.344801    0.568260    0.568260    0.568260    0.000000    0.000000    0.000000
   23.610083    0.578493    0.578493    0.578493    0.000000    0.000000    0.000000
   23.875365    0.588356    0.588356    0.588356    0.000000    0.000000    0.000000
   24.140647    0.597869    0.597869    0.597869    0.000000    0.000000    0.000000
   24.405929    0.607048    0.607048    0.607048    0.000000    0.000000    0.000000
   24.671211    0.615910    0.615910    0.615910    0.000000    0.000000    0.000000
   24.936492    0.624468    0.624468    0.624468    0.000000    0.000000    0.000000
   25.201774    0.632737    0.632737    0.632737    0.000000    0.000000    0.000000
   25.467056    0.640731    0.640731    0.640731    0.000000    0.000000    0.000000
   25.732338    0.648461    0.648461    0.648461    0.000000    0.000000    0.000000
   25.997620    0.655940    0.655940    0.655940    0.000000    0.000000    0.000000
   26.262902    0.663178    0.663178    0.663178    0.000000    0.000000    0.000000
 
 The outermost node in the dielectric function lies at epsilon=  16.1


--------------------------------------------------------------------------------------------------------


    OPTICS:  cpu time    0.2520: real time    0.2523
    4ORBIT:  cpu time    0.0000: real time    0.0000

 total amount of memory used by VASP MPI-rank0    36676. kBytes
=======================================================================

   base      :      30000. kBytes
   nonl-proj :       2970. kBytes
   fftplans  :        460. kBytes
   grid      :       1130. kBytes
   one-center:         24. kBytes
   wavefun   :       2092. kBytes
 
  
  
 General timing and accounting informations for this job:
 ========================================================
  
                  Total CPU time used (sec):        2.044
                            User time (sec):        1.929
                          System time (sec):        0.115
                         Elapsed time (sec):        2.033
  
                   Maximum memory used (kb):       47824.
                   Average memory used (kb):           0.
  
                          Minor page faults:         8071
                          Major page faults:            0
                 Voluntary context switches:           88
