<?xml version="1.0" encoding="ISO-8859-1"?>
<modeling>
 <generator>
  <i name="program" type="string">vasp </i>
  <i name="version" type="string">5.4.4.18Apr17-6-g9f103f2a35  </i>
  <i name="subversion" type="string">(build Nov 24 2017 21:18:46) complex            parallel </i>
  <i name="platform" type="string">LinuxIFC </i>
  <i name="date" type="string">2017 11 24 </i>
  <i name="time" type="string">22:19:58 </i>
 </generator>
 <incar>
  <i type="string" name="SYSTEM"> Silicon</i>
  <i type="int" name="ISTART">     1</i>
  <i type="string" name="PREC">normal</i>
  <i type="string" name="ALGO"> Fast</i>
  <i name="AMIN">      0.01000000</i>
  <i type="int" name="ICHARG">    11</i>
  <i type="int" name="NELM">   100</i>
  <i type="int" name="IBRION">    -1</i>
  <i name="EDIFF">      0.00000100</i>
  <i type="int" name="NSW">     0</i>
  <i name="ENCUT">    318.94850000</i>
  <i type="logical" name="LREAL"> F  </i>
  <i type="logical" name="LPLANE"> T  </i>
  <i type="int" name="ISMEAR">     0</i>
  <i name="SIGMA">      0.10000000</i>
  <i name="KSPACING">      0.20000000</i>
  <i type="logical" name="LCHARG"> T  </i>
  <i type="logical" name="LOPTICS"> T  </i>
  <v type="int" name="KPOINT_BSE">    -1     0     0     0</v>
  <i type="int" name="NELM">   100</i>
 </incar>
 <structure name="primitive_cell" >
  <crystal>
   <varray name="basis" >
    <v>       2.71499991       2.71499991      -0.00000000 </v>
    <v>       2.71499991       0.00000000      -2.71499991 </v>
    <v>       0.00000000       2.71499991      -2.71499991 </v>
   </varray>
   <i name="volume">     40.02574795 </i>
   <varray name="rec_basis" >
    <v>       0.18416207       0.18416207       0.18416207 </v>
    <v>       0.18416207      -0.18416207      -0.18416207 </v>
    <v>      -0.18416207       0.18416207      -0.18416207 </v>
   </varray>
  </crystal>
  <varray name="positions" >
   <v>       0.00000000       0.00000000       0.00000000 </v>
   <v>      -0.25000000      -0.25000000      -0.25000000 </v>
  </varray>
 </structure>
 <varray name="primitive_index" >
  <v type="int" >        1 </v>
  <v type="int" >        5 </v>
 </varray>
 <kpoints>
  <generation param="Gamma">
   <v type="int" name="divisions">       6        6        6 </v>
   <v name="usershift">      0.00000000       0.00000000       0.00000000 </v>
   <v name="genvec1">      0.16666667       0.00000000       0.00000000 </v>
   <v name="genvec2">      0.00000000       0.16666667       0.00000000 </v>
   <v name="genvec3">      0.00000000       0.00000000       0.16666667 </v>
   <v name="shift">      0.00000000       0.00000000       0.00000000 </v>
  </generation>
  <varray name="kpointlist" >
   <v>       0.00000000       0.00000000       0.00000000 </v>
   <v>       0.16666667       0.00000000       0.00000000 </v>
   <v>       0.33333333       0.00000000       0.00000000 </v>
   <v>       0.50000000       0.00000000       0.00000000 </v>
   <v>       0.16666667       0.16666667       0.00000000 </v>
   <v>       0.33333333       0.16666667       0.00000000 </v>
   <v>       0.50000000       0.16666667       0.00000000 </v>
   <v>       0.33333333       0.33333333       0.00000000 </v>
   <v>       0.50000000       0.33333333       0.00000000 </v>
   <v>       0.50000000       0.50000000       0.00000000 </v>
   <v>       0.16666667       0.16666667       0.16666667 </v>
   <v>       0.33333333       0.16666667       0.16666667 </v>
   <v>       0.50000000       0.16666667       0.16666667 </v>
   <v>       0.33333333       0.33333333       0.16666667 </v>
   <v>       0.50000000       0.33333333       0.16666667 </v>
   <v>       0.50000000       0.50000000       0.16666667 </v>
   <v>       0.33333333       0.33333333       0.33333333 </v>
   <v>       0.50000000       0.33333333       0.33333333 </v>
   <v>       0.50000000       0.50000000       0.33333333 </v>
   <v>       0.50000000       0.50000000       0.50000000 </v>
  </varray>
  <varray name="weights" >
   <v>       0.00462963 </v>
   <v>       0.02777778 </v>
   <v>       0.02777778 </v>
   <v>       0.01388889 </v>
   <v>       0.05555556 </v>
   <v>       0.11111111 </v>
   <v>       0.05555556 </v>
   <v>       0.05555556 </v>
   <v>       0.05555556 </v>
   <v>       0.01388889 </v>
   <v>       0.03703704 </v>
   <v>       0.11111111 </v>
   <v>       0.05555556 </v>
   <v>       0.11111111 </v>
   <v>       0.11111111 </v>
   <v>       0.02777778 </v>
   <v>       0.03703704 </v>
   <v>       0.05555556 </v>
   <v>       0.02777778 </v>
   <v>       0.00462963 </v>
  </varray>
 </kpoints>
 <parameters>
  <separator name="general" >
   <i type="string" name="SYSTEM">Silicon</i>
   <i type="logical" name="LCOMPAT"> F  </i>
  </separator>
  <separator name="electronic" >
   <i type="string" name="PREC">normal</i>
   <i name="ENMAX">    318.94850000</i>
   <i name="ENAUG">    322.06900000</i>
   <i name="EDIFF">      0.00000100</i>
   <i type="int" name="IALGO">    68</i>
   <i type="int" name="IWAVPR">    10</i>
   <i type="int" name="NBANDS">    30</i>
   <i name="NELECT">     32.00000000</i>
   <i type="int" name="TURBO">     0</i>
   <i type="int" name="IRESTART">     0</i>
   <i type="int" name="NREBOOT">     0</i>
   <i type="int" name="NMIN">     0</i>
   <i name="EREF">      0.00000000</i>
   <separator name="electronic smearing" >
    <i type="int" name="ISMEAR">     0</i>
    <i name="SIGMA">      0.10000000</i>
    <i name="KSPACING">      0.20000000</i>
    <i type="logical" name="KGAMMA"> T  </i>
   </separator>
   <separator name="electronic projectors" >
    <i type="logical" name="LREAL"> F  </i>
    <v name="ROPT">      0.00000000</v>
    <i type="int" name="LMAXPAW">  -100</i>
    <i type="int" name="LMAXMIX">     2</i>
    <i type="logical" name="NLSPLINE"> F  </i>
   </separator>
   <separator name="electronic startup" >
    <i type="int" name="ISTART">     1</i>
    <i type="int" name="ICHARG">    11</i>
    <i type="int" name="INIWAV">     1</i>
   </separator>
   <separator name="electronic spin" >
    <i type="int" name="ISPIN">     1</i>
    <i type="logical" name="LNONCOLLINEAR"> F  </i>
    <v name="MAGMOM">      1.00000000      1.00000000      1.00000000      1.00000000      1.00000000      1.00000000      1.00000000      1.00000000</v>
    <i name="NUPDOWN">     -1.00000000</i>
    <i type="logical" name="LSORBIT"> F  </i>
    <v name="SAXIS">      0.00000000      0.00000000      1.00000000</v>
    <i type="logical" name="LSPIRAL"> F  </i>
    <v name="QSPIRAL">      0.00000000      0.00000000      0.00000000</v>
    <i type="logical" name="LZEROZ"> F  </i>
   </separator>
   <separator name="electronic exchange-correlation" >
    <i type="logical" name="LASPH"> F  </i>
    <i type="logical" name="LMETAGGA"> F  </i>
   </separator>
   <separator name="electronic convergence" >
    <i type="int" name="NELM">   100</i>
    <i type="int" name="NELMDL">     0</i>
    <i type="int" name="NELMIN">     2</i>
    <i name="ENINI">    318.94850000</i>
    <separator name="electronic convergence detail" >
     <i type="logical" name="LDIAG"> T  </i>
     <i type="logical" name="LSUBROT"> F  </i>
     <i name="WEIMIN">      0.00000000</i>
     <i name="EBREAK">      0.00000001</i>
     <i name="DEPER">      0.30000000</i>
     <i type="int" name="NRMM">     4</i>
     <i name="TIME">      0.40000000</i>
    </separator>
   </separator>
   <separator name="electronic mixer" >
    <i name="AMIX">      0.40000000</i>
    <i name="BMIX">      1.00000000</i>
    <i name="AMIN">      0.01000000</i>
    <i name="AMIX_MAG">      1.60000000</i>
    <i name="BMIX_MAG">      1.00000000</i>
    <separator name="electronic mixer details" >
     <i type="int" name="IMIX">     4</i>
     <i type="logical" name="MIXFIRST"> F  </i>
     <i type="int" name="MAXMIX">   -45</i>
     <i name="WC">    100.00000000</i>
     <i type="int" name="INIMIX">     1</i>
     <i type="int" name="MIXPRE">     1</i>
     <i type="int" name="MREMOVE">     5</i>
    </separator>
   </separator>
   <separator name="electronic dipolcorrection" >
    <i type="logical" name="LDIPOL"> F  </i>
    <i type="logical" name="LMONO"> F  </i>
    <i type="int" name="IDIPOL">     0</i>
    <i name="EPSILON">      1.00000000</i>
    <v name="DIPOL">   -100.00000000   -100.00000000   -100.00000000</v>
    <i name="EFIELD">      0.00000000</i>
   </separator>
  </separator>
  <separator name="grids" >
   <i type="int" name="NGX">    24</i>
   <i type="int" name="NGY">    24</i>
   <i type="int" name="NGZ">    24</i>
   <i type="int" name="NGXF">    48</i>
   <i type="int" name="NGYF">    48</i>
   <i type="int" name="NGZF">    48</i>
   <i type="logical" name="ADDGRID"> F  </i>
  </separator>
  <separator name="ionic" >
   <i type="int" name="NSW">     0</i>
   <i type="int" name="IBRION">    -1</i>
   <i type="int" name="MDALGO">     0</i>
   <i type="int" name="ISIF">     2</i>
   <i name="PSTRESS">      0.00000000</i>
   <i name="EDIFFG">      0.00001000</i>
   <i type="int" name="NFREE">     0</i>
   <i name="POTIM">      0.50000000</i>
   <i name="SMASS">     -3.00000000</i>
   <i name="SCALEE">      1.00000000</i>
  </separator>
  <separator name="ionic md" >
   <i name="TEBEG">      0.00010000</i>
   <i name="TEEND">      0.00010000</i>
   <i type="int" name="NBLOCK">     1</i>
   <i type="int" name="KBLOCK">     1</i>
   <i type="int" name="NPACO">   256</i>
   <i name="APACO">     16.00000000</i>
  </separator>
  <separator name="symmetry" >
   <i type="int" name="ISYM">     2</i>
   <i name="SYMPREC">      0.00001000</i>
  </separator>
  <separator name="dos" >
   <i type="int" name="LORBIT">     0</i>
   <v name="RWIGS">     -1.00000000</v>
   <i type="int" name="NEDOS">   301</i>
   <i name="EMIN">     10.00000000</i>
   <i name="EMAX">    -10.00000000</i>
   <i name="EFERMI">      0.00000000</i>
  </separator>
  <separator name="writing" >
   <i type="int" name="NWRITE">     2</i>
   <i type="logical" name="LWAVE"> T  </i>
   <i type="logical" name="LDOWNSAMPLE"> F  </i>
   <i type="logical" name="LCHARG"> T  </i>
   <i type="logical" name="LPARD"> F  </i>
   <i type="logical" name="LVTOT"> F  </i>
   <i type="logical" name="LVHAR"> F  </i>
   <i type="logical" name="LELF"> F  </i>
   <i type="logical" name="LOPTICS"> T  </i>
   <v name="STM">      0.00000000      0.00000000      0.00000000      0.00000000      0.00000000      0.00000000      0.00000000</v>
  </separator>
  <separator name="performance" >
   <i type="int" name="NPAR">    10</i>
   <i type="int" name="NSIM">     4</i>
   <i type="int" name="NBLK">    -1</i>
   <i type="logical" name="LPLANE"> T  </i>
   <i type="logical" name="LSCALAPACK"> T  </i>
   <i type="logical" name="LSCAAWARE"> F  </i>
   <i type="logical" name="LSCALU"> F  </i>
   <i type="logical" name="LASYNC"> F  </i>
   <i type="logical" name="LORBITALREAL"> F  </i>
  </separator>
  <separator name="miscellaneous" >
   <i type="int" name="IDIOT">     3</i>
   <i type="int" name="ISPECIAL">     0</i>
   <i type="logical" name="LMUSIC"> F  </i>
   <v name="POMASS">     28.08500000</v>
   <v name="DARWINR">      0.00000000</v>
   <v name="DARWINV">      1.00000000</v>
   <i type="logical" name="LCORR"> T  </i>
  </separator>
  <i type="logical" name="GGA_COMPAT"> T  </i>
  <i type="logical" name="LBERRY"> F  </i>
  <i type="int" name="ICORELEVEL">     0</i>
  <i type="logical" name="LDAU"> F  </i>
  <i type="int" name="I_CONSTRAINED_M">     0</i>
  <separator name="electronic exchange-correlation" >
   <i type="string" name="GGA">--</i>
   <i type="int" name="VOSKOWN">     0</i>
   <i type="logical" name="LHFCALC"> F  </i>
   <i type="string" name="PRECFOCK"></i>
   <i type="logical" name="LSYMGRAD"> F  </i>
   <i type="logical" name="LHFONE"> F  </i>
   <i type="logical" name="LRHFCALC"> F  </i>
   <i type="logical" name="LTHOMAS"> F  </i>
   <i type="logical" name="LMODELHF"> F  </i>
   <i name="ENCUT4O">     -1.00000000</i>
   <i type="int" name="EXXOEP">     0</i>
   <i type="int" name="FOURORBIT">     0</i>
   <i name="AEXX">      0.00000000</i>
   <i name="HFALPHA">      0.00000000</i>
   <i name="MCALPHA">      0.00000000</i>
   <i name="ALDAX">      1.00000000</i>
   <i name="AGGAX">      1.00000000</i>
   <i name="ALDAC">      1.00000000</i>
   <i name="AGGAC">      1.00000000</i>
   <i type="int" name="NKREDX">     1</i>
   <i type="int" name="NKREDY">     1</i>
   <i type="int" name="NKREDZ">     1</i>
   <i type="logical" name="SHIFTRED"> F  </i>
   <i type="logical" name="ODDONLY"> F  </i>
   <i type="logical" name="EVENONLY"> F  </i>
   <i type="int" name="LMAXFOCK">     0</i>
   <i type="int" name="NMAXFOCKAE">     0</i>
   <i type="logical" name="LFOCKAEDFT"> F  </i>
   <i name="HFSCREEN">      0.00000000</i>
   <i name="HFSCREENC">      0.00000000</i>
   <i type="int" name="NBANDSGWLOW">     0</i>
  </separator>
  <separator name="vdW DFT" >
   <i type="logical" name="LUSE_VDW"> F  </i>
   <i name="Zab_VDW">     -0.84910000</i>
   <i name="PARAM1">      0.12340000</i>
   <i name="PARAM2">      1.00000000</i>
   <i name="PARAM3">      0.00000000</i>
  </separator>
  <separator name="model GW" >
   <i type="int" name="MODEL_GW">     0</i>
   <i name="MODEL_EPS0">     12.00772439</i>
   <i name="MODEL_ALPHA">      1.00000000</i>
  </separator>
  <separator name="linear response parameters" >
   <i type="logical" name="LEPSILON"> F  </i>
   <i type="logical" name="LRPA"> F  </i>
   <i type="logical" name="LNABLA"> F  </i>
   <i type="logical" name="LVEL"> F  </i>
   <i type="int" name="KINTER">     0</i>
   <i name="CSHIFT">      0.10000000</i>
   <i name="OMEGAMAX">     -1.00000000</i>
   <i name="DEG_THRESHOLD">      0.00200000</i>
   <i name="RTIME">     -0.10000000</i>
   <i name="WPLASMAI">      0.00000000</i>
   <v name="DFIELD">      0.00000000      0.00000000      0.00000000</v>
   <v name="WPLASMA">      0.00000000      0.00000000      0.00000000      0.00000000      0.00000000      0.00000000      0.00000000      0.00000000      0.00000000</v>
  </separator>
  <separator name="orbital magnetization" >
   <i type="logical" name="NUCIND"> F  </i>
   <v name="MAGPOS">      0.00000000      0.00000000      0.00000000</v>
   <i type="logical" name="LNICSALL"> T  </i>
   <i type="logical" name="ORBITALMAG"> F  </i>
   <i type="logical" name="LMAGBLOCH"> F  </i>
   <i type="logical" name="LCHIMAG"> F  </i>
   <i type="logical" name="LGAUGE"> T  </i>
   <i type="int" name="MAGATOM">     0</i>
   <v name="MAGDIPOL">      0.00000000      0.00000000      0.00000000</v>
   <v name="AVECCONST">      0.00000000      0.00000000      0.00000000</v>
  </separator>
  <separator name="response functions" >
   <i type="logical" name="LADDER"> F  </i>
   <i type="logical" name="LRPAFORCE"> F  </i>
   <i type="logical" name="LFXC"> F  </i>
   <i type="logical" name="LHARTREE"> T  </i>
   <i type="int" name="IBSE">     0</i>
   <v type="int" name="KPOINT">    -1     0     0     0</v>
   <i type="logical" name="LTCTE"> F  </i>
   <i type="logical" name="LTETE"> F  </i>
   <i type="logical" name="LTRIPLET"> F  </i>
   <i type="logical" name="LFXCEPS"> F  </i>
   <i type="logical" name="LFXHEG"> F  </i>
   <i type="int" name="NATURALO">     2</i>
   <i type="logical" name="L2ORDER"> F  </i>
   <i type="logical" name="LMP2LT"> F  </i>
   <i type="logical" name="LUSEW"> F  </i>
   <i name="ENCUTGW">     -2.00000000</i>
   <i name="ENCUTGWSOFT">     -2.00000000</i>
   <i name="ENCUTLF">     -1.00000000</i>
   <i type="int" name="LMAXMP2">    -1</i>
   <i name="SCISSOR">      0.00000000</i>
   <i type="int" name="NOMEGA">     0</i>
   <i type="int" name="NOMEGAR">     0</i>
   <i type="int" name="NBANDSGW">    -1</i>
   <i type="int" name="NBANDSO">    -1</i>
   <i type="int" name="NBANDSV">    -1</i>
   <i type="int" name="NELM">   100</i>
   <i type="int" name="NELMHF">     1</i>
   <i type="int" name="DIM">     3</i>
   <i type="int" name="ANTIRES">     0</i>
   <i name="OMEGAMAX">    -30.00000000</i>
   <i name="OMEGAMIN">    -30.00000000</i>
   <i name="OMEGATL">   -200.00000000</i>
   <i type="int" name="OMEGAGRID">   140</i>
   <i name="CSHIFT">     -0.10000000</i>
   <i type="logical" name="SELFENERGY"> F  </i>
   <i type="logical" name="LSPECTRAL"> F  </i>
   <i type="logical" name="LSPECTRALGW"> F  </i>
   <i type="logical" name="LSINGLES"> F  </i>
   <i type="logical" name="LFERMIGW"> F  </i>
   <i type="logical" name="ODDONLYGW"> F  </i>
   <i type="logical" name="EVENONLYGW"> F  </i>
   <i type="int" name="NKREDLFX">     1</i>
   <i type="int" name="NKREDLFY">     1</i>
   <i type="int" name="NKREDLFZ">     1</i>
   <i type="int" name="MAXMEM">  2800</i>
   <i type="int" name="TELESCOPE">     0</i>
   <i type="int" name="TAUPAR">     1</i>
   <i type="int" name="OMEGAPAR">    -1</i>
   <i name="LAMBDA">      1.00000000</i>
  </separator>
  <separator name="External order field" >
   <i name="OFIELD_KAPPA">      0.00000000</i>
   <v name="OFIELD_K">      0.00000000      0.00000000      0.00000000</v>
   <i name="OFIELD_Q6_NEAR">      0.00000000</i>
   <i name="OFIELD_Q6_FAR">      0.00000000</i>
   <i name="OFIELD_A">      0.00000000</i>
  </separator>
 </parameters>
 <atominfo>
  <atoms>       8 </atoms>
  <types>       1 </types>
  <array name="atoms" >
   <dimension dim="1">ion</dimension>
   <field type="string">element</field>
   <field type="int">atomtype</field>
   <set>
    <rc><c>Si</c><c>   1</c></rc>
    <rc><c>Si</c><c>   1</c></rc>
    <rc><c>Si</c><c>   1</c></rc>
    <rc><c>Si</c><c>   1</c></rc>
    <rc><c>Si</c><c>   1</c></rc>
    <rc><c>Si</c><c>   1</c></rc>
    <rc><c>Si</c><c>   1</c></rc>
    <rc><c>Si</c><c>   1</c></rc>
   </set>
  </array>
  <array name="atomtypes" >
   <dimension dim="1">type</dimension>
   <field type="int">atomspertype</field>
   <field type="string">element</field>
   <field>mass</field>
   <field>valence</field>
   <field type="string">pseudopotential</field>
   <set>
    <rc><c>   8</c><c>Si</c><c>     28.08500000</c><c>      4.00000000</c><c> PAW_PBE Si 05Jan2001                   </c></rc>
   </set>
  </array>
 </atominfo>
 <structure name="initialpos" >
  <crystal>
   <varray name="basis" >
    <v>       5.42999983       0.00000000       0.00000000 </v>
    <v>       0.00000000       5.42999983       0.00000000 </v>
    <v>       0.00000000       0.00000000       5.42999983 </v>
   </varray>
   <i name="volume">    160.10299181 </i>
   <varray name="rec_basis" >
    <v>       0.18416207       0.00000000       0.00000000 </v>
    <v>       0.00000000       0.18416207       0.00000000 </v>
    <v>       0.00000000       0.00000000       0.18416207 </v>
   </varray>
  </crystal>
  <varray name="positions" >
   <v>       0.00000000       0.00000000       0.00000000 </v>
   <v>       0.00000000       0.50000000       0.50000000 </v>
   <v>       0.50000000       0.50000000       0.00000000 </v>
   <v>       0.50000000       0.00000000       0.50000000 </v>
   <v>       0.75000000       0.25000000       0.75000000 </v>
   <v>       0.25000000       0.25000000       0.25000000 </v>
   <v>       0.25000000       0.75000000       0.75000000 </v>
   <v>       0.75000000       0.75000000       0.25000000 </v>
  </varray>
 </structure>
 <calculation>
  <scstep>
   <time name="dav">    0.21    0.21</time>
   <time name="total">    0.23    0.23</time>
   <energy>
    <i name="alphaZ">     13.45656938 </i>
    <i name="ewald">   -914.25416145 </i>
    <i name="hartreedc">    -59.66431816 </i>
    <i name="XCdc">    -71.84155592 </i>
    <i name="pawpsdc">    297.71805625 </i>
    <i name="pawaedc">   -157.87407160 </i>
    <i name="eentropy">     -0.00000058 </i>
    <i name="bandstr">     24.57555635 </i>
    <i name="atom">    824.52251144 </i>
    <i name="e_fr_energy">    -43.36141431 </i>
    <i name="e_wo_entrp">    -43.36141373 </i>
    <i name="e_0_energy">    -43.36141402 </i>
   </energy>
  </scstep>
  <scstep>
   <time name="diag">    0.05    0.05</time>
   <time name="diis">    0.08    0.08</time>
   <time name="orth">    0.01    0.01</time>
   <time name="total">    0.14    0.14</time>
   <energy>
    <i name="alphaZ">     13.45656938 </i>
    <i name="ewald">   -914.25416145 </i>
    <i name="hartreedc">    -59.66431816 </i>
    <i name="XCdc">    -71.84155592 </i>
    <i name="pawpsdc">    297.71805625 </i>
    <i name="pawaedc">   -157.87407160 </i>
    <i name="eentropy">     -0.00000058 </i>
    <i name="bandstr">     24.57555634 </i>
    <i name="atom">    824.52251144 </i>
    <i name="e_fr_energy">    -43.36141432 </i>
    <i name="e_wo_entrp">    -43.36141373 </i>
    <i name="e_0_energy">    -43.36141402 </i>
   </energy>
  </scstep>
  <structure>
   <crystal>
    <varray name="basis" >
     <v>       5.42999983       0.00000000       0.00000000 </v>
     <v>       0.00000000       5.42999983       0.00000000 </v>
     <v>       0.00000000       0.00000000       5.42999983 </v>
    </varray>
    <i name="volume">    160.10299181 </i>
    <varray name="rec_basis" >
     <v>       0.18416207       0.00000000       0.00000000 </v>
     <v>       0.00000000       0.18416207       0.00000000 </v>
     <v>       0.00000000       0.00000000       0.18416207 </v>
    </varray>
   </crystal>
   <varray name="positions" >
    <v>       0.00000000       0.00000000       0.00000000 </v>
    <v>       0.00000000       0.50000000       0.50000000 </v>
    <v>       0.50000000       0.50000000       0.00000000 </v>
    <v>       0.50000000       0.00000000       0.50000000 </v>
    <v>       0.75000000       0.25000000       0.75000000 </v>
    <v>       0.25000000       0.25000000       0.25000000 </v>
    <v>       0.25000000       0.75000000       0.75000000 </v>
    <v>       0.75000000       0.75000000       0.25000000 </v>
   </varray>
  </structure>
  <varray name="forces" >
   <v>      -0.00000000       0.00000000       0.00000000 </v>
   <v>       0.00000000       0.00000000       0.00000000 </v>
   <v>       0.00000000       0.00000000       0.00000000 </v>
   <v>      -0.00000000      -0.00000000       0.00000000 </v>
   <v>      -0.00000000      -0.00000000      -0.00000000 </v>
   <v>      -0.00000000      -0.00000000      -0.00000000 </v>
   <v>       0.00000000       0.00000000      -0.00000000 </v>
   <v>      -0.00000000      -0.00000000      -0.00000000 </v>
  </varray>
  <varray name="stress" >
   <v>      18.93792199       0.00000000      -0.00000000 </v>
   <v>      -0.00000000      18.93792199      -0.00000000 </v>
   <v>      -0.00000000      -0.00000000      18.93792199 </v>
  </varray>
  <energy>
   <i name="e_fr_energy">    -43.36141432 </i>
   <i name="e_wo_entrp">    -43.36141402 </i>
   <i name="e_0_energy">     -0.00000058 </i>
  </energy>
  <time name="totalsc">    0.85    0.85</time>
  <eigenvalues>
   <array>
    <dimension dim="1">band</dimension>
    <dimension dim="2">kpoint</dimension>
    <dimension dim="3">spin</dimension>
    <field>eigene</field>
    <field>occ</field>
    <set>
     <set comment="spin 1">
      <set comment="kpoint 1">
       <r>   -6.1304    1.0000 </r>
       <r>   -1.9845    1.0000 </r>
       <r>   -1.9845    1.0000 </r>
       <r>   -1.9845    1.0000 </r>
       <r>   -1.9845    1.0000 </r>
       <r>   -1.9845    1.0000 </r>
       <r>   -1.9845    1.0000 </r>
       <r>    2.9800    1.0000 </r>
       <r>    2.9800    1.0000 </r>
       <r>    2.9800    1.0000 </r>
       <r>    2.9800    1.0000 </r>
       <r>    2.9800    1.0000 </r>
       <r>    2.9800    1.0000 </r>
       <r>    5.8308    1.0000 </r>
       <r>    5.8308    1.0000 </r>
       <r>    5.8308    1.0000 </r>
       <r>    6.5430    0.0000 </r>
       <r>    6.5430    0.0000 </r>
       <r>    6.5430    0.0000 </r>
       <r>    6.5430    0.0000 </r>
       <r>    6.5430    0.0000 </r>
       <r>    6.5430    0.0000 </r>
       <r>    8.3985    0.0000 </r>
       <r>    8.3985    0.0000 </r>
       <r>    8.3985    0.0000 </r>
       <r>    9.2078    0.0000 </r>
       <r>   13.5658    0.0000 </r>
       <r>   13.5658    0.0000 </r>
       <r>   13.7918    0.0000 </r>
       <r>   15.9543    0.0000 </r>
      </set>
      <set comment="kpoint 2">
       <r>   -6.0089    1.0000 </r>
       <r>   -3.1954    1.0000 </r>
       <r>   -1.9463    1.0000 </r>
       <r>   -1.9463    1.0000 </r>
       <r>   -1.9463    1.0000 </r>
       <r>   -1.9463    1.0000 </r>
       <r>   -0.6292    1.0000 </r>
       <r>    2.6737    1.0000 </r>
       <r>    2.6737    1.0000 </r>
       <r>    2.6737    1.0000 </r>
       <r>    2.6737    1.0000 </r>
       <r>    3.0897    1.0000 </r>
       <r>    3.0897    1.0000 </r>
       <r>    5.1386    1.0000 </r>
       <r>    5.4013    1.0000 </r>
       <r>    5.4013    1.0000 </r>
       <r>    6.4050    0.0000 </r>
       <r>    7.0095    0.0000 </r>
       <r>    7.1575    0.0000 </r>
       <r>    7.1575    0.0000 </r>
       <r>    7.1575    0.0000 </r>
       <r>    7.1575    0.0000 </r>
       <r>    8.1240    0.0000 </r>
       <r>    8.9775    0.0000 </r>
       <r>    8.9775    0.0000 </r>
       <r>    9.8463    0.0000 </r>
       <r>   12.7987    0.0000 </r>
       <r>   13.7005    0.0000 </r>
       <r>   14.3057    0.0000 </r>
       <r>   14.6747    0.0000 </r>
      </set>
      <set comment="kpoint 3">
       <r>   -5.6461    1.0000 </r>
       <r>   -4.2253    1.0000 </r>
       <r>   -1.8644    1.0000 </r>
       <r>   -1.8644    1.0000 </r>
       <r>   -1.8644    1.0000 </r>
       <r>   -1.8644    1.0000 </r>
       <r>    0.8222    1.0000 </r>
       <r>    2.1875    1.0000 </r>
       <r>    2.1875    1.0000 </r>
       <r>    2.1875    1.0000 </r>
       <r>    2.1875    1.0000 </r>
       <r>    3.4148    1.0000 </r>
       <r>    3.4148    1.0000 </r>
       <r>    3.7952    1.0000 </r>
       <r>    4.6389    1.0000 </r>
       <r>    4.6389    1.0000 </r>
       <r>    6.5612    0.0000 </r>
       <r>    7.5394    0.0000 </r>
       <r>    7.8256    0.0000 </r>
       <r>    8.5839    0.0000 </r>
       <r>    8.5839    0.0000 </r>
       <r>    8.5839    0.0000 </r>
       <r>    8.5839    0.0000 </r>
       <r>   10.1398    0.0000 </r>
       <r>   10.1814    0.0000 </r>
       <r>   10.1814    0.0000 </r>
       <r>   12.4552    0.0000 </r>
       <r>   12.6034    0.0000 </r>
       <r>   12.6034    0.0000 </r>
       <r>   12.6034    0.0000 </r>
      </set>
      <set comment="kpoint 4">
       <r>   -5.0480    1.0000 </r>
       <r>   -5.0480    1.0000 </r>
       <r>   -1.8204    1.0000 </r>
       <r>   -1.8204    1.0000 </r>
       <r>   -1.8204    1.0000 </r>
       <r>   -1.8204    1.0000 </r>
       <r>    1.9795    1.0000 </r>
       <r>    1.9795    1.0000 </r>
       <r>    1.9795    1.0000 </r>
       <r>    1.9795    1.0000 </r>
       <r>    2.3162    1.0000 </r>
       <r>    2.3162    1.0000 </r>
       <r>    3.9423    1.0000 </r>
       <r>    3.9423    1.0000 </r>
       <r>    3.9423    1.0000 </r>
       <r>    3.9423    1.0000 </r>
       <r>    6.9642    0.0000 </r>
       <r>    6.9642    0.0000 </r>
       <r>    8.9675    0.0000 </r>
       <r>    8.9675    0.0000 </r>
       <r>   10.1034    0.0000 </r>
       <r>   10.1034    0.0000 </r>
       <r>   10.1034    0.0000 </r>
       <r>   10.1034    0.0000 </r>
       <r>   10.8413    0.0000 </r>
       <r>   10.8413    0.0000 </r>
       <r>   10.8413    0.0000 </r>
       <r>   10.8413    0.0000 </r>
       <r>   11.5939    0.0000 </r>
       <r>   11.5939    0.0000 </r>
      </set>
      <set comment="kpoint 5">
       <r>   -5.8884    1.0000 </r>
       <r>   -3.1180    1.0000 </r>
       <r>   -3.1180    1.0000 </r>
       <r>   -2.1254    1.0000 </r>
       <r>   -1.7217    1.0000 </r>
       <r>   -0.6657    1.0000 </r>
       <r>   -0.6657    1.0000 </r>
       <r>    1.9867    1.0000 </r>
       <r>    2.7091    1.0000 </r>
       <r>    2.7091    1.0000 </r>
       <r>    2.9056    1.0000 </r>
       <r>    2.9056    1.0000 </r>
       <r>    3.1731    1.0000 </r>
       <r>    4.2432    1.0000 </r>
       <r>    4.9681    1.0000 </r>
       <r>    5.7131    1.0000 </r>
       <r>    6.7662    0.0000 </r>
       <r>    7.0557    0.0000 </r>
       <r>    7.0557    0.0000 </r>
       <r>    7.5678    0.0000 </r>
       <r>    7.5678    0.0000 </r>
       <r>    8.3774    0.0000 </r>
       <r>    8.6482    0.0000 </r>
       <r>    8.7700    0.0000 </r>
       <r>    8.8027    0.0000 </r>
       <r>   10.6653    0.0000 </r>
       <r>   12.6662    0.0000 </r>
       <r>   13.2806    0.0000 </r>
       <r>   13.2806    0.0000 </r>
       <r>   13.4129    0.0000 </r>
      </set>
      <set comment="kpoint 6">
       <r>   -5.5289    1.0000 </r>
       <r>   -4.1266    1.0000 </r>
       <r>   -2.9039    1.0000 </r>
       <r>   -2.3338    1.0000 </r>
       <r>   -1.4225    1.0000 </r>
       <r>   -0.8099    1.0000 </r>
       <r>    0.6468    1.0000 </r>
       <r>    1.5817    1.0000 </r>
       <r>    2.0640    1.0000 </r>
       <r>    2.6827    1.0000 </r>
       <r>    2.9929    1.0000 </r>
       <r>    3.0588    1.0000 </r>
       <r>    3.1062    1.0000 </r>
       <r>    3.4207    1.0000 </r>
       <r>    4.1982    1.0000 </r>
       <r>    5.1258    1.0000 </r>
       <r>    7.2265    0.0000 </r>
       <r>    7.5852    0.0000 </r>
       <r>    8.1729    0.0000 </r>
       <r>    8.3126    0.0000 </r>
       <r>    8.5175    0.0000 </r>
       <r>    8.9207    0.0000 </r>
       <r>    9.3859    0.0000 </r>
       <r>    9.9928    0.0000 </r>
       <r>   10.0057    0.0000 </r>
       <r>   10.7477    0.0000 </r>
       <r>   11.2224    0.0000 </r>
       <r>   11.9018    0.0000 </r>
       <r>   12.4995    0.0000 </r>
       <r>   12.7054    0.0000 </r>
      </set>
      <set comment="kpoint 7">
       <r>   -4.9374    1.0000 </r>
       <r>   -4.9374    1.0000 </r>
       <r>   -2.6121    1.0000 </r>
       <r>   -2.6121    1.0000 </r>
       <r>   -1.0867    1.0000 </r>
       <r>   -1.0867    1.0000 </r>
       <r>    1.6234    1.0000 </r>
       <r>    1.6234    1.0000 </r>
       <r>    1.9131    1.0000 </r>
       <r>    1.9131    1.0000 </r>
       <r>    2.7535    1.0000 </r>
       <r>    2.7535    1.0000 </r>
       <r>    3.5026    1.0000 </r>
       <r>    3.5026    1.0000 </r>
       <r>    4.2055    1.0000 </r>
       <r>    4.2055    1.0000 </r>
       <r>    7.6248    0.0000 </r>
       <r>    7.6248    0.0000 </r>
       <r>    9.1602    0.0000 </r>
       <r>    9.1602    0.0000 </r>
       <r>    9.3638    0.0000 </r>
       <r>    9.3638    0.0000 </r>
       <r>   10.3110    0.0000 </r>
       <r>   10.3110    0.0000 </r>
       <r>   10.6559    0.0000 </r>
       <r>   10.6559    0.0000 </r>
       <r>   10.8372    0.0000 </r>
       <r>   10.8372    0.0000 </r>
       <r>   11.4745    0.0000 </r>
       <r>   11.4745    0.0000 </r>
      </set>
      <set comment="kpoint 8">
       <r>   -5.1805    1.0000 </r>
       <r>   -3.8400    1.0000 </r>
       <r>   -3.8400    1.0000 </r>
       <r>   -2.8648    1.0000 </r>
       <r>   -0.9377    1.0000 </r>
       <r>    0.1892    1.0000 </r>
       <r>    0.1892    1.0000 </r>
       <r>    1.4194    1.0000 </r>
       <r>    2.1159    1.0000 </r>
       <r>    2.2628    1.0000 </r>
       <r>    2.2628    1.0000 </r>
       <r>    3.4198    1.0000 </r>
       <r>    3.5376    1.0000 </r>
       <r>    3.5376    1.0000 </r>
       <r>    3.7204    1.0000 </r>
       <r>    5.2669    1.0000 </r>
       <r>    7.4016    0.0000 </r>
       <r>    8.6884    0.0000 </r>
       <r>    8.6884    0.0000 </r>
       <r>    8.8782    0.0000 </r>
       <r>    9.3949    0.0000 </r>
       <r>    9.5491    0.0000 </r>
       <r>    9.5491    0.0000 </r>
       <r>    9.6827    0.0000 </r>
       <r>   10.0734    0.0000 </r>
       <r>   10.0734    0.0000 </r>
       <r>   11.5042    0.0000 </r>
       <r>   11.6372    0.0000 </r>
       <r>   11.9463    0.0000 </r>
       <r>   12.3172    0.0000 </r>
      </set>
      <set comment="kpoint 9">
       <r>   -4.6109    1.0000 </r>
       <r>   -4.6109    1.0000 </r>
       <r>   -3.3978    1.0000 </r>
       <r>   -3.3978    1.0000 </r>
       <r>   -0.3844    1.0000 </r>
       <r>   -0.3844    1.0000 </r>
       <r>    1.1450    1.0000 </r>
       <r>    1.1450    1.0000 </r>
       <r>    1.6815    1.0000 </r>
       <r>    1.6815    1.0000 </r>
       <r>    2.7335    1.0000 </r>
       <r>    2.7335    1.0000 </r>
       <r>    3.7555    1.0000 </r>
       <r>    3.7555    1.0000 </r>
       <r>    4.5595    1.0000 </r>
       <r>    4.5595    1.0000 </r>
       <r>    8.3647    0.0000 </r>
       <r>    8.3647    0.0000 </r>
       <r>    9.0481    0.0000 </r>
       <r>    9.0481    0.0000 </r>
       <r>    9.1975    0.0000 </r>
       <r>    9.1975    0.0000 </r>
       <r>   10.4813    0.0000 </r>
       <r>   10.4813    0.0000 </r>
       <r>   10.5086    0.0000 </r>
       <r>   10.5086    0.0000 </r>
       <r>   11.1741    0.0000 </r>
       <r>   11.1741    0.0000 </r>
       <r>   11.3421    0.0000 </r>
       <r>   11.3421    0.0000 </r>
      </set>
      <set comment="kpoint 10">
       <r>   -4.0858    1.0000 </r>
       <r>   -4.0858    1.0000 </r>
       <r>   -4.0858    1.0000 </r>
       <r>   -4.0858    1.0000 </r>
       <r>    0.3527    1.0000 </r>
       <r>    0.3527    1.0000 </r>
       <r>    0.3527    1.0000 </r>
       <r>    0.3527    1.0000 </r>
       <r>    2.0796    1.0000 </r>
       <r>    2.0796    1.0000 </r>
       <r>    2.0796    1.0000 </r>
       <r>    2.0796    1.0000 </r>
       <r>    4.5041    1.0000 </r>
       <r>    4.5041    1.0000 </r>
       <r>    4.5041    1.0000 </r>
       <r>    4.5041    1.0000 </r>
       <r>    8.2855    0.0000 </r>
       <r>    8.2855    0.0000 </r>
       <r>    8.2855    0.0000 </r>
       <r>    8.2855    0.0000 </r>
       <r>   10.6271    0.0000 </r>
       <r>   10.6271    0.0000 </r>
       <r>   10.6271    0.0000 </r>
       <r>   10.6271    0.0000 </r>
       <r>   10.9687    0.0000 </r>
       <r>   10.9687    0.0000 </r>
       <r>   10.9687    0.0000 </r>
       <r>   10.9687    0.0000 </r>
       <r>   11.9856    0.0000 </r>
       <r>   11.9856    0.0000 </r>
      </set>
      <set comment="kpoint 11">
       <r>   -5.7691    1.0000 </r>
       <r>   -3.0610    1.0000 </r>
       <r>   -3.0610    1.0000 </r>
       <r>   -3.0610    1.0000 </r>
       <r>   -0.7326    1.0000 </r>
       <r>   -0.7326    1.0000 </r>
       <r>   -0.7326    1.0000 </r>
       <r>    2.2003    1.0000 </r>
       <r>    2.2003    1.0000 </r>
       <r>    2.2003    1.0000 </r>
       <r>    3.2782    1.0000 </r>
       <r>    3.2782    1.0000 </r>
       <r>    3.2782    1.0000 </r>
       <r>    3.4519    1.0000 </r>
       <r>    5.3811    1.0000 </r>
       <r>    5.3811    1.0000 </r>
       <r>    6.8969    0.0000 </r>
       <r>    6.8969    0.0000 </r>
       <r>    6.8969    0.0000 </r>
       <r>    8.1883    0.0000 </r>
       <r>    8.5515    0.0000 </r>
       <r>    8.5515    0.0000 </r>
       <r>    8.5515    0.0000 </r>
       <r>    9.0462    0.0000 </r>
       <r>    9.0462    0.0000 </r>
       <r>   11.2935    0.0000 </r>
       <r>   12.9287    0.0000 </r>
       <r>   12.9287    0.0000 </r>
       <r>   13.2922    0.0000 </r>
       <r>   13.2939    0.0000 </r>
      </set>
      <set comment="kpoint 12">
       <r>   -5.4137    1.0000 </r>
       <r>   -4.0356    1.0000 </r>
       <r>   -2.9309    1.0000 </r>
       <r>   -2.9309    1.0000 </r>
       <r>   -0.9041    1.0000 </r>
       <r>   -0.9041    1.0000 </r>
       <r>    0.3766    1.0000 </r>
       <r>    1.8836    1.0000 </r>
       <r>    1.8836    1.0000 </r>
       <r>    2.4033    1.0000 </r>
       <r>    2.8448    1.0000 </r>
       <r>    3.2115    1.0000 </r>
       <r>    3.2115    1.0000 </r>
       <r>    3.5886    1.0000 </r>
       <r>    4.7247    1.0000 </r>
       <r>    4.9054    1.0000 </r>
       <r>    7.2659    0.0000 </r>
       <r>    7.7149    0.0000 </r>
       <r>    7.7149    0.0000 </r>
       <r>    8.2731    0.0000 </r>
       <r>    9.0521    0.0000 </r>
       <r>    9.0849    0.0000 </r>
       <r>    9.9029    0.0000 </r>
       <r>   10.1374    0.0000 </r>
       <r>   10.1374    0.0000 </r>
       <r>   11.2369    0.0000 </r>
       <r>   11.3067    0.0000 </r>
       <r>   11.3067    0.0000 </r>
       <r>   11.7506    0.0000 </r>
       <r>   12.0351    0.0000 </r>
      </set>
      <set comment="kpoint 13">
       <r>   -4.8304    1.0000 </r>
       <r>   -4.8304    1.0000 </r>
       <r>   -2.8548    1.0000 </r>
       <r>   -2.8548    1.0000 </r>
       <r>   -1.0108    1.0000 </r>
       <r>   -1.0108    1.0000 </r>
       <r>    1.3966    1.0000 </r>
       <r>    1.3966    1.0000 </r>
       <r>    1.8227    1.0000 </r>
       <r>    1.8227    1.0000 </r>
       <r>    3.0707    1.0000 </r>
       <r>    3.0707    1.0000 </r>
       <r>    3.8395    1.0000 </r>
       <r>    3.8395    1.0000 </r>
       <r>    4.0861    1.0000 </r>
       <r>    4.0861    1.0000 </r>
       <r>    7.7995    0.0000 </r>
       <r>    7.7995    0.0000 </r>
       <r>    9.1896    0.0000 </r>
       <r>    9.1896    0.0000 </r>
       <r>    9.3946    0.0000 </r>
       <r>    9.3946    0.0000 </r>
       <r>    9.9034    0.0000 </r>
       <r>    9.9034    0.0000 </r>
       <r>   10.3589    0.0000 </r>
       <r>   10.3589    0.0000 </r>
       <r>   10.9125    0.0000 </r>
       <r>   10.9125    0.0000 </r>
       <r>   11.9380    0.0000 </r>
       <r>   11.9380    0.0000 </r>
      </set>
      <set comment="kpoint 14">
       <r>   -5.0718    1.0000 </r>
       <r>   -3.7788    1.0000 </r>
       <r>   -3.7788    1.0000 </r>
       <r>   -3.0872    1.0000 </r>
       <r>   -0.9648    1.0000 </r>
       <r>   -0.1929    1.0000 </r>
       <r>   -0.1929    1.0000 </r>
       <r>    1.4312    1.0000 </r>
       <r>    1.9351    1.0000 </r>
       <r>    2.6091    1.0000 </r>
       <r>    2.6091    1.0000 </r>
       <r>    3.7059    1.0000 </r>
       <r>    3.7059    1.0000 </r>
       <r>    3.8072    1.0000 </r>
       <r>    4.1424    1.0000 </r>
       <r>    5.1488    1.0000 </r>
       <r>    7.5338    0.0000 </r>
       <r>    8.0789    0.0000 </r>
       <r>    8.0789    0.0000 </r>
       <r>    8.2717    0.0000 </r>
       <r>    9.3064    0.0000 </r>
       <r>    9.5807    0.0000 </r>
       <r>   10.0465    0.0000 </r>
       <r>   10.0465    0.0000 </r>
       <r>   10.6487    0.0000 </r>
       <r>   10.6487    0.0000 </r>
       <r>   11.2918    0.0000 </r>
       <r>   11.4598    0.0000 </r>
       <r>   11.8426    0.0000 </r>
       <r>   11.8426    0.0000 </r>
      </set>
      <set comment="kpoint 15">
       <r>   -4.5168    1.0000 </r>
       <r>   -4.5168    1.0000 </r>
       <r>   -3.4174    1.0000 </r>
       <r>   -3.4174    1.0000 </r>
       <r>   -0.7125    1.0000 </r>
       <r>   -0.7125    1.0000 </r>
       <r>    0.5623    1.0000 </r>
       <r>    0.5623    1.0000 </r>
       <r>    2.2448    1.0000 </r>
       <r>    2.2448    1.0000 </r>
       <r>    3.3968    1.0000 </r>
       <r>    3.3968    1.0000 </r>
       <r>    3.8604    1.0000 </r>
       <r>    3.8604    1.0000 </r>
       <r>    4.5231    1.0000 </r>
       <r>    4.5231    1.0000 </r>
       <r>    8.4574    0.0000 </r>
       <r>    8.4574    0.0000 </r>
       <r>    8.4963    0.0000 </r>
       <r>    8.4963    0.0000 </r>
       <r>    9.2277    0.0000 </r>
       <r>    9.2277    0.0000 </r>
       <r>    9.5829    0.0000 </r>
       <r>    9.5829    0.0000 </r>
       <r>   10.4581    0.0000 </r>
       <r>   10.4581    0.0000 </r>
       <r>   11.3819    0.0000 </r>
       <r>   11.3819    0.0000 </r>
       <r>   11.6511    0.0000 </r>
       <r>   11.6511    0.0000 </r>
      </set>
      <set comment="kpoint 16">
       <r>   -4.0236    1.0000 </r>
       <r>   -4.0236    1.0000 </r>
       <r>   -4.0236    1.0000 </r>
       <r>   -4.0236    1.0000 </r>
       <r>   -0.1737    1.0000 </r>
       <r>   -0.1737    1.0000 </r>
       <r>   -0.1737    1.0000 </r>
       <r>   -0.1737    1.0000 </r>
       <r>    2.7851    1.0000 </r>
       <r>    2.7851    1.0000 </r>
       <r>    2.7851    1.0000 </r>
       <r>    2.7851    1.0000 </r>
       <r>    4.5349    1.0000 </r>
       <r>    4.5349    1.0000 </r>
       <r>    4.5349    1.0000 </r>
       <r>    4.5349    1.0000 </r>
       <r>    8.2886    0.0000 </r>
       <r>    8.2886    0.0000 </r>
       <r>    8.2886    0.0000 </r>
       <r>    8.2886    0.0000 </r>
       <r>    9.9587    0.0000 </r>
       <r>    9.9587    0.0000 </r>
       <r>    9.9587    0.0000 </r>
       <r>    9.9587    0.0000 </r>
       <r>   10.0668    0.0000 </r>
       <r>   10.0668    0.0000 </r>
       <r>   10.0668    0.0000 </r>
       <r>   10.0668    0.0000 </r>
       <r>   13.1329    0.0000 </r>
       <r>   13.1330    0.0000 </r>
      </set>
      <set comment="kpoint 17">
       <r>   -4.7530    1.0000 </r>
       <r>   -3.6385    1.0000 </r>
       <r>   -3.6385    1.0000 </r>
       <r>   -3.6385    1.0000 </r>
       <r>   -0.7732    1.0000 </r>
       <r>   -0.7732    1.0000 </r>
       <r>   -0.7732    1.0000 </r>
       <r>    0.4983    1.0000 </r>
       <r>    3.0556    1.0000 </r>
       <r>    3.0556    1.0000 </r>
       <r>    3.0556    1.0000 </r>
       <r>    4.0558    1.0000 </r>
       <r>    4.0558    1.0000 </r>
       <r>    4.0558    1.0000 </r>
       <r>    4.8315    1.0000 </r>
       <r>    4.8315    1.0000 </r>
       <r>    7.5998    0.0000 </r>
       <r>    7.8766    0.0000 </r>
       <r>    7.8766    0.0000 </r>
       <r>    7.8766    0.0000 </r>
       <r>    9.3429    0.0000 </r>
       <r>    9.3429    0.0000 </r>
       <r>    9.9519    0.0000 </r>
       <r>    9.9519    0.0000 </r>
       <r>    9.9519    0.0000 </r>
       <r>   10.4584    0.0000 </r>
       <r>   10.4584    0.0000 </r>
       <r>   10.4584    0.0000 </r>
       <r>   12.2592    0.0000 </r>
       <r>   12.2592    0.0000 </r>
      </set>
      <set comment="kpoint 18">
       <r>   -4.2515    1.0000 </r>
       <r>   -4.2515    1.0000 </r>
       <r>   -3.5561    1.0000 </r>
       <r>   -3.5561    1.0000 </r>
       <r>   -1.0267    1.0000 </r>
       <r>   -1.0267    1.0000 </r>
       <r>   -0.2641    1.0000 </r>
       <r>   -0.2641    1.0000 </r>
       <r>    3.2343    1.0000 </r>
       <r>    3.2343    1.0000 </r>
       <r>    4.1846    1.0000 </r>
       <r>    4.1846    1.0000 </r>
       <r>    4.2560    1.0000 </r>
       <r>    4.2560    1.0000 </r>
       <r>    4.4251    1.0000 </r>
       <r>    4.4251    1.0000 </r>
       <r>    7.9654    0.0000 </r>
       <r>    7.9654    0.0000 </r>
       <r>    8.4205    0.0000 </r>
       <r>    8.4205    0.0000 </r>
       <r>    8.9507    0.0000 </r>
       <r>    8.9507    0.0000 </r>
       <r>    9.1001    0.0000 </r>
       <r>    9.1001    0.0000 </r>
       <r>    9.7299    0.0000 </r>
       <r>    9.7299    0.0000 </r>
       <r>   10.3308    0.0000 </r>
       <r>   10.3308    0.0000 </r>
       <r>   12.8564    0.0000 </r>
       <r>   12.8564    0.0000 </r>
      </set>
      <set comment="kpoint 19">
       <r>   -3.8815    1.0000 </r>
       <r>   -3.8815    1.0000 </r>
       <r>   -3.8815    1.0000 </r>
       <r>   -3.8815    1.0000 </r>
       <r>   -0.8564    1.0000 </r>
       <r>   -0.8564    1.0000 </r>
       <r>   -0.8564    1.0000 </r>
       <r>   -0.8564    1.0000 </r>
       <r>    3.9556    1.0000 </r>
       <r>    3.9556    1.0000 </r>
       <r>    3.9556    1.0000 </r>
       <r>    3.9556    1.0000 </r>
       <r>    4.5994    1.0000 </r>
       <r>    4.5994    1.0000 </r>
       <r>    4.5994    1.0000 </r>
       <r>    4.5994    1.0000 </r>
       <r>    7.9129    0.0000 </r>
       <r>    7.9129    0.0000 </r>
       <r>    7.9129    0.0000 </r>
       <r>    7.9129    0.0000 </r>
       <r>    9.2178    0.0000 </r>
       <r>    9.2178    0.0000 </r>
       <r>    9.2178    0.0000 </r>
       <r>    9.2178    0.0000 </r>
       <r>    9.4193    0.0000 </r>
       <r>    9.4193    0.0000 </r>
       <r>    9.4193    0.0000 </r>
       <r>    9.4193    0.0000 </r>
       <r>   13.8656    0.0000 </r>
       <r>   13.8656    0.0000 </r>
      </set>
      <set comment="kpoint 20">
       <r>   -3.7980    1.0000 </r>
       <r>   -3.7980    1.0000 </r>
       <r>   -3.7980    1.0000 </r>
       <r>   -3.7980    1.0000 </r>
       <r>   -1.1375    1.0000 </r>
       <r>   -1.1375    1.0000 </r>
       <r>   -1.1375    1.0000 </r>
       <r>   -1.1375    1.0000 </r>
       <r>    4.6335    1.0000 </r>
       <r>    4.6335    1.0000 </r>
       <r>    4.6335    1.0000 </r>
       <r>    4.6335    1.0000 </r>
       <r>    4.6335    1.0000 </r>
       <r>    4.6335    1.0000 </r>
       <r>    4.6335    1.0000 </r>
       <r>    4.6335    1.0000 </r>
       <r>    7.3755    0.0000 </r>
       <r>    7.3755    0.0000 </r>
       <r>    7.3755    0.0000 </r>
       <r>    7.3755    0.0000 </r>
       <r>    9.1771    0.0000 </r>
       <r>    9.1771    0.0000 </r>
       <r>    9.1771    0.0000 </r>
       <r>    9.1771    0.0000 </r>
       <r>    9.1771    0.0000 </r>
       <r>    9.1771    0.0000 </r>
       <r>    9.1771    0.0000 </r>
       <r>    9.1771    0.0000 </r>
       <r>   13.5627    0.0000 </r>
       <r>   13.5627    0.0000 </r>
      </set>
     </set>
    </set>
   </array>
  </eigenvalues>
  <separator name="orbital magnetization" >
   <v name="MAGDIPOLOUT">      0.00000000      0.00000000      0.00000000</v>
  </separator>
  <dielectricfunction>
   <imag>
    <array>
     <dimension dim="1">gridpoints</dimension>
     <field>energy</field>
     <field>xx</field>
     <field>yy</field>
     <field>zz</field>
     <field>xy</field>
     <field>yz</field>
     <field>zx</field>
     <set>
      <r>     0.0000     0.0000     0.0000     0.0000     0.0000     0.0000     0.0000 </r>
      <r>     0.0265     0.0048     0.0048     0.0048     0.0000    -0.0000    -0.0000 </r>
      <r>     0.0531     0.0096     0.0096     0.0096     0.0000    -0.0000    -0.0000 </r>
      <r>     0.0796     0.0144     0.0144     0.0144     0.0000    -0.0000    -0.0000 </r>
      <r>     0.1061     0.0193     0.0193     0.0193     0.0000    -0.0000    -0.0000 </r>
      <r>     0.1326     0.0241     0.0241     0.0241     0.0000    -0.0000    -0.0000 </r>
      <r>     0.1592     0.0290     0.0290     0.0290     0.0000    -0.0000    -0.0000 </r>
      <r>     0.1857     0.0339     0.0339     0.0339     0.0000    -0.0000    -0.0000 </r>
      <r>     0.2122     0.0388     0.0388     0.0388     0.0000    -0.0000    -0.0000 </r>
      <r>     0.2388     0.0437     0.0437     0.0437     0.0000    -0.0000    -0.0000 </r>
      <r>     0.2653     0.0487     0.0487     0.0487     0.0000    -0.0000    -0.0000 </r>
      <r>     0.2918     0.0537     0.0537     0.0537     0.0000    -0.0000    -0.0000 </r>
      <r>     0.3183     0.0587     0.0587     0.0587     0.0000    -0.0000    -0.0000 </r>
      <r>     0.3449     0.0638     0.0638     0.0638     0.0000    -0.0000    -0.0000 </r>
      <r>     0.3714     0.0689     0.0689     0.0689     0.0000    -0.0000    -0.0000 </r>
      <r>     0.3979     0.0741     0.0741     0.0741     0.0000    -0.0000    -0.0000 </r>
      <r>     0.4245     0.0794     0.0794     0.0794     0.0000    -0.0000    -0.0000 </r>
      <r>     0.4510     0.0847     0.0847     0.0847     0.0000    -0.0000    -0.0000 </r>
      <r>     0.4775     0.0901     0.0901     0.0901     0.0000    -0.0000    -0.0000 </r>
      <r>     0.5040     0.0955     0.0955     0.0955     0.0000    -0.0000    -0.0000 </r>
      <r>     0.5306     0.1010     0.1010     0.1010     0.0000    -0.0000    -0.0000 </r>
      <r>     0.5571     0.1066     0.1066     0.1066     0.0000    -0.0000    -0.0000 </r>
      <r>     0.5836     0.1123     0.1123     0.1123     0.0000    -0.0000    -0.0000 </r>
      <r>     0.6101     0.1181     0.1181     0.1181     0.0000    -0.0000    -0.0000 </r>
      <r>     0.6367     0.1239     0.1239     0.1239     0.0000    -0.0000    -0.0000 </r>
      <r>     0.6632     0.1299     0.1299     0.1299     0.0000    -0.0000    -0.0000 </r>
      <r>     0.6897     0.1360     0.1360     0.1360     0.0000    -0.0000    -0.0000 </r>
      <r>     0.7163     0.1422     0.1422     0.1422     0.0000    -0.0000    -0.0000 </r>
      <r>     0.7428     0.1485     0.1485     0.1485     0.0000    -0.0000    -0.0000 </r>
      <r>     0.7693     0.1549     0.1549     0.1549     0.0000    -0.0000    -0.0000 </r>
      <r>     0.7958     0.1615     0.1615     0.1615     0.0000    -0.0000    -0.0000 </r>
      <r>     0.8224     0.1682     0.1682     0.1682     0.0000    -0.0000    -0.0000 </r>
      <r>     0.8489     0.1751     0.1751     0.1751     0.0000    -0.0000    -0.0000 </r>
      <r>     0.8754     0.1821     0.1821     0.1821     0.0000    -0.0000    -0.0000 </r>
      <r>     0.9020     0.1893     0.1893     0.1893     0.0000    -0.0000    -0.0000 </r>
      <r>     0.9285     0.1967     0.1967     0.1967     0.0000    -0.0000    -0.0000 </r>
      <r>     0.9550     0.2043     0.2043     0.2043     0.0000    -0.0000    -0.0000 </r>
      <r>     0.9815     0.2120     0.2120     0.2120     0.0000    -0.0000    -0.0000 </r>
      <r>     1.0081     0.2200     0.2200     0.2200     0.0000    -0.0000    -0.0000 </r>
      <r>     1.0346     0.2282     0.2282     0.2282     0.0000    -0.0000    -0.0000 </r>
      <r>     1.0611     0.2366     0.2366     0.2366     0.0000    -0.0000    -0.0000 </r>
      <r>     1.0877     0.2453     0.2453     0.2453     0.0000    -0.0000    -0.0000 </r>
      <r>     1.1142     0.2543     0.2543     0.2543     0.0000    -0.0000    -0.0000 </r>
      <r>     1.1407     0.2635     0.2635     0.2635     0.0000    -0.0000    -0.0000 </r>
      <r>     1.1672     0.2730     0.2730     0.2730     0.0000    -0.0000    -0.0000 </r>
      <r>     1.1938     0.2829     0.2829     0.2829     0.0000    -0.0000    -0.0000 </r>
      <r>     1.2203     0.2930     0.2930     0.2930     0.0000    -0.0000    -0.0000 </r>
      <r>     1.2468     0.3036     0.3036     0.3036     0.0000    -0.0000    -0.0000 </r>
      <r>     1.2734     0.3145     0.3145     0.3145     0.0000    -0.0000    -0.0000 </r>
      <r>     1.2999     0.3258     0.3258     0.3258     0.0000    -0.0000    -0.0000 </r>
      <r>     1.3264     0.3375     0.3375     0.3375     0.0000    -0.0000    -0.0000 </r>
      <r>     1.3529     0.3497     0.3497     0.3497     0.0000    -0.0000    -0.0000 </r>
      <r>     1.3795     0.3623     0.3623     0.3623     0.0000    -0.0000    -0.0000 </r>
      <r>     1.4060     0.3755     0.3755     0.3755     0.0000    -0.0000    -0.0000 </r>
      <r>     1.4325     0.3892     0.3892     0.3892     0.0000    -0.0000    -0.0000 </r>
      <r>     1.4591     0.4035     0.4035     0.4035     0.0000    -0.0000    -0.0000 </r>
      <r>     1.4856     0.4184     0.4184     0.4184     0.0000    -0.0000    -0.0000 </r>
      <r>     1.5121     0.4341     0.4341     0.4341     0.0000    -0.0000    -0.0000 </r>
      <r>     1.5386     0.4504     0.4504     0.4504     0.0000    -0.0000    -0.0000 </r>
      <r>     1.5652     0.4675     0.4675     0.4675     0.0000    -0.0000    -0.0000 </r>
      <r>     1.5917     0.4855     0.4855     0.4855     0.0000    -0.0000    -0.0000 </r>
      <r>     1.6182     0.5043     0.5043     0.5043     0.0000    -0.0000    -0.0000 </r>
      <r>     1.6447     0.5241     0.5241     0.5241     0.0000    -0.0000    -0.0000 </r>
      <r>     1.6713     0.5450     0.5450     0.5450     0.0000    -0.0000    -0.0000 </r>
      <r>     1.6978     0.5671     0.5671     0.5671     0.0000    -0.0000    -0.0000 </r>
      <r>     1.7243     0.5904     0.5904     0.5904     0.0000    -0.0000    -0.0000 </r>
      <r>     1.7509     0.6151     0.6151     0.6151     0.0000    -0.0000    -0.0000 </r>
      <r>     1.7774     0.6412     0.6412     0.6412     0.0000    -0.0000    -0.0000 </r>
      <r>     1.8039     0.6690     0.6690     0.6690     0.0000    -0.0000    -0.0000 </r>
      <r>     1.8304     0.6987     0.6987     0.6987     0.0000    -0.0000    -0.0000 </r>
      <r>     1.8570     0.7303     0.7303     0.7303     0.0000    -0.0000    -0.0000 </r>
      <r>     1.8835     0.7641     0.7641     0.7641     0.0000    -0.0000    -0.0000 </r>
      <r>     1.9100     0.8003     0.8003     0.8003     0.0000    -0.0000    -0.0000 </r>
      <r>     1.9366     0.8393     0.8393     0.8393     0.0000    -0.0000    -0.0000 </r>
      <r>     1.9631     0.8813     0.8813     0.8813     0.0000    -0.0000    -0.0000 </r>
      <r>     1.9896     0.9268     0.9268     0.9268     0.0000    -0.0000    -0.0000 </r>
      <r>     2.0161     0.9762     0.9762     0.9762     0.0000    -0.0000    -0.0000 </r>
      <r>     2.0427     1.0300     1.0300     1.0300     0.0000    -0.0000    -0.0000 </r>
      <r>     2.0692     1.0889     1.0889     1.0889     0.0000    -0.0000    -0.0000 </r>
      <r>     2.0957     1.1537     1.1537     1.1537     0.0000    -0.0000    -0.0000 </r>
      <r>     2.1223     1.2253     1.2253     1.2253     0.0000    -0.0000    -0.0000 </r>
      <r>     2.1488     1.3049     1.3049     1.3049     0.0000    -0.0000    -0.0000 </r>
      <r>     2.1753     1.3940     1.3940     1.3940     0.0000    -0.0000    -0.0000 </r>
      <r>     2.2018     1.4945     1.4945     1.4945     0.0000    -0.0000    -0.0000 </r>
      <r>     2.2284     1.6087     1.6087     1.6087     0.0000    -0.0000    -0.0000 </r>
      <r>     2.2549     1.7399     1.7399     1.7399     0.0000    -0.0000    -0.0000 </r>
      <r>     2.2814     1.8923     1.8923     1.8923     0.0000    -0.0000    -0.0000 </r>
      <r>     2.3080     2.0710     2.0710     2.0710     0.0000    -0.0000    -0.0000 </r>
      <r>     2.3345     2.2832     2.2832     2.2832     0.0000    -0.0000    -0.0000 </r>
      <r>     2.3610     2.5374     2.5374     2.5374     0.0000    -0.0000    -0.0000 </r>
      <r>     2.3875     2.8436     2.8436     2.8436     0.0000    -0.0000    -0.0000 </r>
      <r>     2.4141     3.2128     3.2128     3.2128     0.0000    -0.0000    -0.0000 </r>
      <r>     2.4406     3.6563     3.6563     3.6563     0.0000    -0.0000    -0.0000 </r>
      <r>     2.4671     4.1846     4.1846     4.1846     0.0000    -0.0000    -0.0000 </r>
      <r>     2.4936     4.8083     4.8083     4.8083     0.0000    -0.0000    -0.0000 </r>
      <r>     2.5202     5.5397     5.5397     5.5397     0.0000    -0.0000    -0.0000 </r>
      <r>     2.5467     6.3947     6.3947     6.3947     0.0000    -0.0000    -0.0000 </r>
      <r>     2.5732     7.3928     7.3928     7.3928     0.0000    -0.0000    -0.0000 </r>
      <r>     2.5998     8.5510     8.5510     8.5510     0.0000    -0.0000    -0.0000 </r>
      <r>     2.6263     9.8715     9.8715     9.8715     0.0000    -0.0000    -0.0000 </r>
      <r>     2.6528    11.3256    11.3256    11.3256     0.0000    -0.0000    -0.0000 </r>
      <r>     2.6793    12.8423    12.8423    12.8423     0.0000    -0.0000    -0.0000 </r>
      <r>     2.7059    14.3123    14.3123    14.3123     0.0000    -0.0000    -0.0000 </r>
      <r>     2.7324    15.6100    15.6100    15.6100    -0.0000    -0.0000    -0.0000 </r>
      <r>     2.7589    16.6293    16.6293    16.6293    -0.0000    -0.0000    -0.0000 </r>
      <r>     2.7855    17.3191    17.3191    17.3191    -0.0000    -0.0000    -0.0000 </r>
      <r>     2.8120    17.7011    17.7011    17.7011    -0.0000    -0.0000    -0.0000 </r>
      <r>     2.8385    17.8643    17.8643    17.8643    -0.0000     0.0000    -0.0000 </r>
      <r>     2.8650    17.9363    17.9363    17.9363    -0.0000     0.0000    -0.0000 </r>
      <r>     2.8916    18.0468    18.0468    18.0468     0.0000     0.0000    -0.0000 </r>
      <r>     2.9181    18.2941    18.2941    18.2941     0.0000     0.0000    -0.0000 </r>
      <r>     2.9446    18.7237    18.7237    18.7237     0.0000     0.0000    -0.0000 </r>
      <r>     2.9712    19.3199    19.3199    19.3199    -0.0000     0.0000    -0.0000 </r>
      <r>     2.9977    20.0101    20.0101    20.0101    -0.0000     0.0000    -0.0000 </r>
      <r>     3.0242    20.6823    20.6823    20.6823    -0.0000    -0.0000    -0.0000 </r>
      <r>     3.0507    21.2136    21.2136    21.2136    -0.0000    -0.0000     0.0000 </r>
      <r>     3.0773    21.5053    21.5053    21.5053    -0.0000    -0.0000     0.0000 </r>
      <r>     3.1038    21.5147    21.5147    21.5147    -0.0000    -0.0000     0.0000 </r>
      <r>     3.1303    21.2711    21.2711    21.2711    -0.0000    -0.0000     0.0000 </r>
      <r>     3.1569    20.8710    20.8710    20.8710    -0.0000    -0.0000     0.0000 </r>
      <r>     3.1834    20.4492    20.4492    20.4492    -0.0000    -0.0000     0.0000 </r>
      <r>     3.2099    20.1375    20.1375    20.1375    -0.0000    -0.0000     0.0000 </r>
      <r>     3.2364    20.0256    20.0256    20.0256    -0.0000    -0.0000     0.0000 </r>
      <r>     3.2630    20.1423    20.1423    20.1423    -0.0000    -0.0000     0.0000 </r>
      <r>     3.2895    20.4667    20.4667    20.4667    -0.0000    -0.0000     0.0000 </r>
      <r>     3.3160    20.9621    20.9621    20.9621     0.0000    -0.0000     0.0000 </r>
      <r>     3.3426    21.6159    21.6159    21.6159     0.0000    -0.0000     0.0000 </r>
      <r>     3.3691    22.4649    22.4649    22.4649     0.0000    -0.0000     0.0000 </r>
      <r>     3.3956    23.5919    23.5919    23.5919     0.0000    -0.0000     0.0000 </r>
      <r>     3.4221    25.0972    25.0972    25.0972     0.0000    -0.0000     0.0000 </r>
      <r>     3.4487    27.0540    27.0540    27.0540     0.0000    -0.0000     0.0000 </r>
      <r>     3.4752    29.4689    29.4689    29.4689     0.0000     0.0000     0.0000 </r>
      <r>     3.5017    32.2607    32.2607    32.2607     0.0000     0.0000     0.0000 </r>
      <r>     3.5282    35.2659    35.2659    35.2659     0.0000     0.0000     0.0000 </r>
      <r>     3.5548    38.2692    38.2692    38.2692     0.0000     0.0000     0.0000 </r>
      <r>     3.5813    41.0437    41.0437    41.0437     0.0000     0.0000     0.0000 </r>
      <r>     3.6078    43.3852    43.3852    43.3852     0.0000     0.0000     0.0000 </r>
      <r>     3.6344    45.1309    45.1309    45.1309     0.0000     0.0000     0.0000 </r>
      <r>     3.6609    46.1637    46.1637    46.1637     0.0000     0.0000     0.0000 </r>
      <r>     3.6874    46.4115    46.4115    46.4115     0.0000     0.0000     0.0000 </r>
      <r>     3.7139    45.8519    45.8519    45.8519     0.0000    -0.0000     0.0000 </r>
      <r>     3.7405    44.5225    44.5225    44.5225     0.0000    -0.0000     0.0000 </r>
      <r>     3.7670    42.5290    42.5290    42.5290     0.0000    -0.0000     0.0000 </r>
      <r>     3.7935    40.0420    40.0420    40.0420     0.0000    -0.0000     0.0000 </r>
      <r>     3.8201    37.2777    37.2777    37.2777     0.0000    -0.0000     0.0000 </r>
      <r>     3.8466    34.4630    34.4630    34.4630     0.0000    -0.0000     0.0000 </r>
      <r>     3.8731    31.7955    31.7955    31.7955     0.0000    -0.0000     0.0000 </r>
      <r>     3.8996    29.4129    29.4129    29.4129     0.0000     0.0000     0.0000 </r>
      <r>     3.9262    27.3822    27.3822    27.3822     0.0000     0.0000     0.0000 </r>
      <r>     3.9527    25.7135    25.7135    25.7135     0.0000     0.0000    -0.0000 </r>
      <r>     3.9792    24.3891    24.3891    24.3891     0.0000     0.0000    -0.0000 </r>
      <r>     4.0058    23.3904    23.3904    23.3904     0.0000     0.0000    -0.0000 </r>
      <r>     4.0323    22.7063    22.7063    22.7063     0.0000     0.0000    -0.0000 </r>
      <r>     4.0588    22.3218    22.3218    22.3218     0.0000     0.0000    -0.0000 </r>
      <r>     4.0853    22.1999    22.1999    22.1999     0.0000    -0.0000    -0.0000 </r>
      <r>     4.1119    22.2727    22.2727    22.2727     0.0000    -0.0000    -0.0000 </r>
      <r>     4.1384    22.4517    22.4517    22.4517     0.0000    -0.0000    -0.0000 </r>
      <r>     4.1649    22.6526    22.6526    22.6526     0.0000    -0.0000    -0.0000 </r>
      <r>     4.1915    22.8204    22.8204    22.8204     0.0000    -0.0000    -0.0000 </r>
      <r>     4.2180    22.9437    22.9437    22.9437     0.0000    -0.0000    -0.0000 </r>
      <r>     4.2445    23.0532    23.0532    23.0532     0.0000    -0.0000    -0.0000 </r>
      <r>     4.2710    23.2077    23.2077    23.2077     0.0000    -0.0000    -0.0000 </r>
      <r>     4.2976    23.4727    23.4727    23.4727     0.0000    -0.0000    -0.0000 </r>
      <r>     4.3241    23.9013    23.9013    23.9013     0.0000    -0.0000    -0.0000 </r>
      <r>     4.3506    24.5183    24.5183    24.5183     0.0000    -0.0000    -0.0000 </r>
      <r>     4.3772    25.3132    25.3132    25.3132     0.0000    -0.0000    -0.0000 </r>
      <r>     4.4037    26.2386    26.2386    26.2386     0.0000    -0.0000    -0.0000 </r>
      <r>     4.4302    27.2142    27.2142    27.2142     0.0000    -0.0000    -0.0000 </r>
      <r>     4.4567    28.1354    28.1354    28.1354     0.0000    -0.0000    -0.0000 </r>
      <r>     4.4833    28.8869    28.8869    28.8869     0.0000    -0.0000    -0.0000 </r>
      <r>     4.5098    29.3616    29.3616    29.3616     0.0000     0.0000    -0.0000 </r>
      <r>     4.5363    29.4790    29.4790    29.4790     0.0000     0.0000    -0.0000 </r>
      <r>     4.5628    29.1965    29.1965    29.1965     0.0000     0.0000    -0.0000 </r>
      <r>     4.5894    28.5129    28.5129    28.5129     0.0000     0.0000     0.0000 </r>
      <r>     4.6159    27.4636    27.4636    27.4636     0.0000     0.0000     0.0000 </r>
      <r>     4.6424    26.1143    26.1143    26.1143     0.0000     0.0000     0.0000 </r>
      <r>     4.6690    24.5528    24.5528    24.5528     0.0000     0.0000     0.0000 </r>
      <r>     4.6955    22.8781    22.8781    22.8781     0.0000     0.0000     0.0000 </r>
      <r>     4.7220    21.1867    21.1867    21.1867     0.0000     0.0000     0.0000 </r>
      <r>     4.7485    19.5570    19.5570    19.5570     0.0000     0.0000     0.0000 </r>
      <r>     4.7751    18.0379    18.0379    18.0379     0.0000     0.0000     0.0000 </r>
      <r>     4.8016    16.6458    16.6458    16.6458     0.0000     0.0000     0.0000 </r>
      <r>     4.8281    15.3726    15.3726    15.3726     0.0000     0.0000     0.0000 </r>
      <r>     4.8547    14.2012    14.2012    14.2012     0.0000     0.0000     0.0000 </r>
      <r>     4.8812    13.1213    13.1213    13.1213     0.0000     0.0000     0.0000 </r>
      <r>     4.9077    12.1382    12.1382    12.1382     0.0000     0.0000     0.0000 </r>
      <r>     4.9342    11.2711    11.2711    11.2711     0.0000     0.0000    -0.0000 </r>
      <r>     4.9608    10.5437    10.5437    10.5437     0.0000     0.0000    -0.0000 </r>
      <r>     4.9873     9.9727     9.9727     9.9727     0.0000     0.0000    -0.0000 </r>
      <r>     5.0138     9.5595     9.5595     9.5595     0.0000     0.0000    -0.0000 </r>
      <r>     5.0404     9.2876     9.2876     9.2876     0.0000     0.0000    -0.0000 </r>
      <r>     5.0669     9.1253     9.1253     9.1253     0.0000     0.0000    -0.0000 </r>
      <r>     5.0934     9.0320     9.0320     9.0320     0.0000     0.0000    -0.0000 </r>
      <r>     5.1199     8.9651     8.9651     8.9651     0.0000     0.0000    -0.0000 </r>
      <r>     5.1465     8.8890     8.8890     8.8890     0.0000     0.0000    -0.0000 </r>
      <r>     5.1730     8.7802     8.7802     8.7802     0.0000     0.0000    -0.0000 </r>
      <r>     5.1995     8.6304     8.6304     8.6304     0.0000     0.0000    -0.0000 </r>
      <r>     5.2261     8.4442     8.4442     8.4442     0.0000     0.0000    -0.0000 </r>
      <r>     5.2526     8.2348     8.2348     8.2348     0.0000     0.0000    -0.0000 </r>
      <r>     5.2791     8.0193     8.0193     8.0193    -0.0000     0.0000    -0.0000 </r>
      <r>     5.3056     7.8161     7.8161     7.8161    -0.0000     0.0000    -0.0000 </r>
      <r>     5.3322     7.6423     7.6423     7.6423    -0.0000    -0.0000    -0.0000 </r>
      <r>     5.3587     7.5097     7.5097     7.5097    -0.0000    -0.0000     0.0000 </r>
      <r>     5.3852     7.4201     7.4201     7.4201    -0.0000    -0.0000     0.0000 </r>
      <r>     5.4117     7.3613     7.3613     7.3613    -0.0000    -0.0000     0.0000 </r>
      <r>     5.4383     7.3085     7.3085     7.3085    -0.0000    -0.0000     0.0000 </r>
      <r>     5.4648     7.2332     7.2332     7.2332    -0.0000    -0.0000     0.0000 </r>
      <r>     5.4913     7.1140     7.1140     7.1140    -0.0000    -0.0000     0.0000 </r>
      <r>     5.5179     6.9468     6.9468     6.9468    -0.0000    -0.0000     0.0000 </r>
      <r>     5.5444     6.7464     6.7464     6.7464    -0.0000    -0.0000     0.0000 </r>
      <r>     5.5709     6.5410     6.5410     6.5410    -0.0000    -0.0000     0.0000 </r>
      <r>     5.5974     6.3613     6.3613     6.3613    -0.0000    -0.0000     0.0000 </r>
      <r>     5.6240     6.2290     6.2290     6.2290     0.0000    -0.0000     0.0000 </r>
      <r>     5.6505     6.1515     6.1515     6.1515     0.0000    -0.0000     0.0000 </r>
      <r>     5.6770     6.1209     6.1209     6.1209     0.0000    -0.0000     0.0000 </r>
      <r>     5.7036     6.1197     6.1197     6.1197     0.0000    -0.0000     0.0000 </r>
      <r>     5.7301     6.1270     6.1270     6.1270     0.0000    -0.0000    -0.0000 </r>
      <r>     5.7566     6.1242     6.1242     6.1242     0.0000    -0.0000    -0.0000 </r>
      <r>     5.7831     6.0979     6.0979     6.0979     0.0000    -0.0000    -0.0000 </r>
      <r>     5.8097     6.0403     6.0403     6.0403     0.0000    -0.0000    -0.0000 </r>
      <r>     5.8362     5.9494     5.9494     5.9494    -0.0000    -0.0000    -0.0000 </r>
      <r>     5.8627     5.8286     5.8286     5.8286    -0.0000    -0.0000    -0.0000 </r>
      <r>     5.8893     5.6860     5.6860     5.6860    -0.0000    -0.0000    -0.0000 </r>
      <r>     5.9158     5.5332     5.5332     5.5332    -0.0000    -0.0000    -0.0000 </r>
      <r>     5.9423     5.3825     5.3825     5.3825    -0.0000    -0.0000    -0.0000 </r>
      <r>     5.9688     5.2450     5.2450     5.2450    -0.0000    -0.0000    -0.0000 </r>
      <r>     5.9954     5.1293     5.1293     5.1293    -0.0000    -0.0000    -0.0000 </r>
      <r>     6.0219     5.0418     5.0418     5.0418     0.0000    -0.0000    -0.0000 </r>
      <r>     6.0484     4.9880     4.9880     4.9880     0.0000    -0.0000     0.0000 </r>
      <r>     6.0750     4.9738     4.9738     4.9738     0.0000     0.0000     0.0000 </r>
      <r>     6.1015     5.0065     5.0065     5.0065     0.0000     0.0000     0.0000 </r>
      <r>     6.1280     5.0942     5.0942     5.0942     0.0000     0.0000     0.0000 </r>
      <r>     6.1545     5.2445     5.2445     5.2445     0.0000     0.0000     0.0000 </r>
      <r>     6.1811     5.4611     5.4611     5.4611     0.0000     0.0000    -0.0000 </r>
      <r>     6.2076     5.7407     5.7407     5.7407     0.0000     0.0000    -0.0000 </r>
      <r>     6.2341     6.0704     6.0704     6.0704     0.0000     0.0000    -0.0000 </r>
      <r>     6.2607     6.4264     6.4264     6.4264     0.0000     0.0000    -0.0000 </r>
      <r>     6.2872     6.7748     6.7748     6.7748     0.0000     0.0000    -0.0000 </r>
      <r>     6.3137     7.0761     7.0761     7.0761     0.0000     0.0000    -0.0000 </r>
      <r>     6.3402     7.2912     7.2912     7.2912     0.0000     0.0000    -0.0000 </r>
      <r>     6.3668     7.3899     7.3899     7.3899     0.0000     0.0000    -0.0000 </r>
      <r>     6.3933     7.3570     7.3570     7.3570     0.0000     0.0000    -0.0000 </r>
      <r>     6.4198     7.1948     7.1948     7.1948     0.0000     0.0000    -0.0000 </r>
      <r>     6.4463     6.9206     6.9206     6.9206     0.0000     0.0000    -0.0000 </r>
      <r>     6.4729     6.5605     6.5605     6.5605     0.0000     0.0000    -0.0000 </r>
      <r>     6.4994     6.1432     6.1432     6.1432     0.0000     0.0000    -0.0000 </r>
      <r>     6.5259     5.6956     5.6956     5.6956     0.0000     0.0000    -0.0000 </r>
      <r>     6.5525     5.2419     5.2419     5.2419     0.0000     0.0000    -0.0000 </r>
      <r>     6.5790     4.8038     4.8038     4.8038     0.0000     0.0000    -0.0000 </r>
      <r>     6.6055     4.4010     4.4010     4.4010     0.0000     0.0000    -0.0000 </r>
      <r>     6.6320     4.0500     4.0500     4.0500     0.0000     0.0000    -0.0000 </r>
      <r>     6.6586     3.7624     3.7624     3.7624     0.0000     0.0000    -0.0000 </r>
      <r>     6.6851     3.5445     3.5445     3.5445     0.0000     0.0000    -0.0000 </r>
      <r>     6.7116     3.3972     3.3972     3.3972     0.0000     0.0000    -0.0000 </r>
      <r>     6.7382     3.3168     3.3168     3.3168     0.0000     0.0000    -0.0000 </r>
      <r>     6.7647     3.2945     3.2945     3.2945     0.0000     0.0000    -0.0000 </r>
      <r>     6.7912     3.3166     3.3166     3.3166     0.0000     0.0000    -0.0000 </r>
      <r>     6.8177     3.3647     3.3647     3.3647     0.0000     0.0000    -0.0000 </r>
      <r>     6.8443     3.4181     3.4181     3.4181     0.0000     0.0000    -0.0000 </r>
      <r>     6.8708     3.4583     3.4583     3.4583     0.0000     0.0000    -0.0000 </r>
      <r>     6.8973     3.4728     3.4728     3.4728     0.0000     0.0000    -0.0000 </r>
      <r>     6.9239     3.4578     3.4578     3.4578     0.0000     0.0000    -0.0000 </r>
      <r>     6.9504     3.4172     3.4172     3.4172     0.0000     0.0000    -0.0000 </r>
      <r>     6.9769     3.3588     3.3588     3.3588     0.0000     0.0000    -0.0000 </r>
      <r>     7.0034     3.2899     3.2899     3.2899     0.0000     0.0000    -0.0000 </r>
      <r>     7.0300     3.2143     3.2143     3.2143     0.0000     0.0000    -0.0000 </r>
      <r>     7.0565     3.1317     3.1317     3.1317     0.0000     0.0000    -0.0000 </r>
      <r>     7.0830     3.0410     3.0410     3.0410     0.0000     0.0000    -0.0000 </r>
      <r>     7.1096     2.9426     2.9426     2.9426     0.0000     0.0000    -0.0000 </r>
      <r>     7.1361     2.8411     2.8411     2.8411     0.0000     0.0000    -0.0000 </r>
      <r>     7.1626     2.7446     2.7446     2.7446     0.0000     0.0000    -0.0000 </r>
      <r>     7.1891     2.6621     2.6621     2.6621     0.0000     0.0000     0.0000 </r>
      <r>     7.2157     2.6006     2.6006     2.6006     0.0000     0.0000     0.0000 </r>
      <r>     7.2422     2.5626     2.5626     2.5626     0.0000     0.0000    -0.0000 </r>
      <r>     7.2687     2.5455     2.5455     2.5455     0.0000     0.0000    -0.0000 </r>
      <r>     7.2953     2.5425     2.5425     2.5425     0.0000     0.0000    -0.0000 </r>
      <r>     7.3218     2.5453     2.5453     2.5453     0.0000     0.0000    -0.0000 </r>
      <r>     7.3483     2.5467     2.5467     2.5467     0.0000     0.0000    -0.0000 </r>
      <r>     7.3748     2.5428     2.5428     2.5428     0.0000     0.0000    -0.0000 </r>
      <r>     7.4014     2.5336     2.5336     2.5336     0.0000     0.0000    -0.0000 </r>
      <r>     7.4279     2.5220     2.5220     2.5220     0.0000     0.0000    -0.0000 </r>
      <r>     7.4544     2.5124     2.5124     2.5124     0.0000     0.0000    -0.0000 </r>
      <r>     7.4809     2.5076     2.5076     2.5076     0.0000     0.0000    -0.0000 </r>
      <r>     7.5075     2.5068     2.5068     2.5068     0.0000     0.0000    -0.0000 </r>
      <r>     7.5340     2.5055     2.5055     2.5055     0.0000     0.0000    -0.0000 </r>
      <r>     7.5605     2.4960     2.4960     2.4960     0.0000     0.0000    -0.0000 </r>
      <r>     7.5871     2.4702     2.4702     2.4702    -0.0000     0.0000    -0.0000 </r>
      <r>     7.6136     2.4219     2.4219     2.4219    -0.0000     0.0000    -0.0000 </r>
      <r>     7.6401     2.3491     2.3491     2.3491    -0.0000     0.0000    -0.0000 </r>
      <r>     7.6666     2.2541     2.2541     2.2541    -0.0000     0.0000    -0.0000 </r>
      <r>     7.6932     2.1430     2.1430     2.1430    -0.0000     0.0000    -0.0000 </r>
      <r>     7.7197     2.0237     2.0237     2.0237    -0.0000     0.0000    -0.0000 </r>
      <r>     7.7462     1.9048     1.9048     1.9048    -0.0000     0.0000    -0.0000 </r>
      <r>     7.7728     1.7940     1.7940     1.7940    -0.0000     0.0000    -0.0000 </r>
      <r>     7.7993     1.6980     1.6980     1.6980    -0.0000     0.0000    -0.0000 </r>
      <r>     7.8258     1.6224     1.6224     1.6224    -0.0000     0.0000    -0.0000 </r>
      <r>     7.8523     1.5716     1.5716     1.5716    -0.0000    -0.0000    -0.0000 </r>
      <r>     7.8789     1.5486     1.5486     1.5486    -0.0000    -0.0000    -0.0000 </r>
      <r>     7.9054     1.5538     1.5538     1.5538    -0.0000    -0.0000    -0.0000 </r>
      <r>     7.9319     1.5850     1.5850     1.5850    -0.0000    -0.0000    -0.0000 </r>
      <r>     7.9585     1.6361     1.6361     1.6361    -0.0000    -0.0000    -0.0000 </r>
      <r>     7.9850     1.6981     1.6981     1.6981    -0.0000    -0.0000    -0.0000 </r>
      <r>     8.0115     1.7602     1.7602     1.7602    -0.0000    -0.0000    -0.0000 </r>
      <r>     8.0380     1.8113     1.8113     1.8113    -0.0000    -0.0000    -0.0000 </r>
      <r>     8.0646     1.8428     1.8428     1.8428    -0.0000    -0.0000    -0.0000 </r>
      <r>     8.0911     1.8506     1.8506     1.8506    -0.0000     0.0000    -0.0000 </r>
      <r>     8.1176     1.8361     1.8361     1.8361    -0.0000     0.0000    -0.0000 </r>
      <r>     8.1442     1.8048     1.8048     1.8048     0.0000     0.0000    -0.0000 </r>
      <r>     8.1707     1.7648     1.7648     1.7648     0.0000     0.0000    -0.0000 </r>
      <r>     8.1972     1.7233     1.7233     1.7233    -0.0000     0.0000    -0.0000 </r>
      <r>     8.2237     1.6855     1.6855     1.6855    -0.0000     0.0000    -0.0000 </r>
      <r>     8.2503     1.6541     1.6541     1.6541    -0.0000     0.0000    -0.0000 </r>
      <r>     8.2768     1.6311     1.6311     1.6311    -0.0000     0.0000    -0.0000 </r>
      <r>     8.3033     1.6179     1.6179     1.6179    -0.0000     0.0000    -0.0000 </r>
      <r>     8.3298     1.6161     1.6161     1.6161    -0.0000     0.0000    -0.0000 </r>
      <r>     8.3564     1.6254     1.6254     1.6254    -0.0000     0.0000    -0.0000 </r>
      <r>     8.3829     1.6425     1.6425     1.6425    -0.0000     0.0000    -0.0000 </r>
      <r>     8.4094     1.6608     1.6608     1.6608    -0.0000     0.0000    -0.0000 </r>
      <r>     8.4360     1.6721     1.6721     1.6721    -0.0000     0.0000    -0.0000 </r>
      <r>     8.4625     1.6685     1.6685     1.6685    -0.0000     0.0000    -0.0000 </r>
      <r>     8.4890     1.6454     1.6454     1.6454    -0.0000     0.0000    -0.0000 </r>
      <r>     8.5155     1.6021     1.6021     1.6021    -0.0000     0.0000    -0.0000 </r>
      <r>     8.5421     1.5421     1.5421     1.5421    -0.0000     0.0000    -0.0000 </r>
      <r>     8.5686     1.4713     1.4713     1.4713    -0.0000     0.0000    -0.0000 </r>
      <r>     8.5951     1.3962     1.3962     1.3962    -0.0000     0.0000    -0.0000 </r>
      <r>     8.6217     1.3228     1.3228     1.3228    -0.0000     0.0000    -0.0000 </r>
      <r>     8.6482     1.2556     1.2556     1.2556    -0.0000     0.0000    -0.0000 </r>
      <r>     8.6747     1.1977     1.1977     1.1977    -0.0000     0.0000    -0.0000 </r>
      <r>     8.7012     1.1509     1.1509     1.1509    -0.0000     0.0000    -0.0000 </r>
      <r>     8.7278     1.1154     1.1154     1.1154    -0.0000     0.0000    -0.0000 </r>
      <r>     8.7543     1.0902     1.0902     1.0902    -0.0000     0.0000    -0.0000 </r>
      <r>     8.7808     1.0728     1.0728     1.0728    -0.0000     0.0000    -0.0000 </r>
      <r>     8.8074     1.0587     1.0587     1.0587    -0.0000     0.0000    -0.0000 </r>
      <r>     8.8339     1.0432     1.0432     1.0432    -0.0000     0.0000    -0.0000 </r>
      <r>     8.8604     1.0215     1.0215     1.0215    -0.0000     0.0000    -0.0000 </r>
      <r>     8.8869     0.9912     0.9912     0.9912    -0.0000    -0.0000    -0.0000 </r>
      <r>     8.9135     0.9525     0.9525     0.9525    -0.0000    -0.0000    -0.0000 </r>
      <r>     8.9400     0.9088     0.9088     0.9088    -0.0000    -0.0000     0.0000 </r>
      <r>     8.9665     0.8657     0.8657     0.8657    -0.0000    -0.0000     0.0000 </r>
      <r>     8.9931     0.8291     0.8291     0.8291    -0.0000    -0.0000     0.0000 </r>
      <r>     9.0196     0.8045     0.8045     0.8045    -0.0000    -0.0000     0.0000 </r>
      <r>     9.0461     0.7953     0.7953     0.7953     0.0000     0.0000    -0.0000 </r>
      <r>     9.0726     0.8025     0.8025     0.8025     0.0000     0.0000    -0.0000 </r>
      <r>     9.0992     0.8247     0.8247     0.8247     0.0000     0.0000    -0.0000 </r>
      <r>     9.1257     0.8581     0.8581     0.8581     0.0000     0.0000    -0.0000 </r>
      <r>     9.1522     0.8977     0.8977     0.8977     0.0000     0.0000    -0.0000 </r>
      <r>     9.1788     0.9383     0.9383     0.9383     0.0000     0.0000    -0.0000 </r>
      <r>     9.2053     0.9752     0.9752     0.9752     0.0000     0.0000    -0.0000 </r>
      <r>     9.2318     1.0058     1.0058     1.0058     0.0000     0.0000    -0.0000 </r>
      <r>     9.2583     1.0294     1.0294     1.0294     0.0000     0.0000    -0.0000 </r>
      <r>     9.2849     1.0468     1.0468     1.0468     0.0000     0.0000    -0.0000 </r>
      <r>     9.3114     1.0590     1.0590     1.0590     0.0000     0.0000    -0.0000 </r>
      <r>     9.3379     1.0657     1.0657     1.0657     0.0000     0.0000    -0.0000 </r>
      <r>     9.3644     1.0654     1.0654     1.0654     0.0000     0.0000    -0.0000 </r>
      <r>     9.3910     1.0554     1.0554     1.0554     0.0000     0.0000    -0.0000 </r>
      <r>     9.4175     1.0340     1.0340     1.0340     0.0000     0.0000    -0.0000 </r>
      <r>     9.4440     1.0010     1.0010     1.0010     0.0000     0.0000    -0.0000 </r>
      <r>     9.4706     0.9586     0.9586     0.9586     0.0000     0.0000    -0.0000 </r>
      <r>     9.4971     0.9101     0.9101     0.9101     0.0000     0.0000    -0.0000 </r>
      <r>     9.5236     0.8591     0.8591     0.8591     0.0000     0.0000    -0.0000 </r>
      <r>     9.5501     0.8082     0.8082     0.8082     0.0000     0.0000    -0.0000 </r>
      <r>     9.5767     0.7588     0.7588     0.7588     0.0000     0.0000    -0.0000 </r>
      <r>     9.6032     0.7114     0.7114     0.7114     0.0000     0.0000    -0.0000 </r>
      <r>     9.6297     0.6659     0.6659     0.6659     0.0000     0.0000    -0.0000 </r>
      <r>     9.6563     0.6226     0.6226     0.6226     0.0000     0.0000    -0.0000 </r>
      <r>     9.6828     0.5823     0.5823     0.5823     0.0000     0.0000    -0.0000 </r>
      <r>     9.7093     0.5463     0.5463     0.5463     0.0000     0.0000    -0.0000 </r>
      <r>     9.7358     0.5155     0.5155     0.5155     0.0000     0.0000    -0.0000 </r>
      <r>     9.7624     0.4906     0.4906     0.4906     0.0000     0.0000    -0.0000 </r>
[...]
     <r>    10.7218     0.2377     0.2377     0.2377     0.0000     0.0000    -0.0000 </r>
     <r>    10.7318     0.2132     0.2132     0.2132     0.0000     0.0000    -0.0000 </r>
     <r>    10.7418     0.1888     0.1888     0.1888    -0.0000    -0.0000    -0.0000 </r>
     <r>    10.7518     0.1652     0.1652     0.1652     0.0000    -0.0000     0.0000 </r>
     <r>    10.7618     0.1430     0.1430     0.1430     0.0000     0.0000    -0.0000 </r>
     <r>    10.7719     0.1227     0.1227     0.1227    -0.0000    -0.0000     0.0000 </r>
     <r>    10.7819     0.1046     0.1046     0.1046    -0.0000     0.0000    -0.0000 </r>
     <r>    10.7919     0.0888     0.0888     0.0888     0.0000    -0.0000    -0.0000 </r>
     <r>    10.8019     0.0754     0.0754     0.0754    -0.0000     0.0000    -0.0000 </r>
     <r>    10.8119     0.0642     0.0642     0.0642    -0.0000    -0.0000    -0.0000 </r>
     <r>    10.8219     0.0551     0.0551     0.0551    -0.0000     0.0000     0.0000 </r>
     <r>    10.8319     0.0479     0.0479     0.0479     0.0000     0.0000     0.0000 </r>
     <r>    10.8419     0.0422     0.0422     0.0422     0.0000    -0.0000    -0.0000 </r>
     <r>    10.8519     0.0380     0.0380     0.0380    -0.0000    -0.0000    -0.0000 </r>
     <r>    10.8619     0.0349     0.0349     0.0349     0.0000    -0.0000    -0.0000 </r>
     <r>    10.8720     0.0326     0.0326     0.0326     0.0000     0.0000    -0.0000 </r>
     <r>    10.8820     0.0310     0.0310     0.0310    -0.0000    -0.0000     0.0000 </r>
     <r>    10.8920     0.0298     0.0298     0.0298     0.0000     0.0000    -0.0000 </r>
     <r>    10.9020     0.0288     0.0288     0.0288     0.0000     0.0000    -0.0000 </r>
     <r>    10.9120     0.0280     0.0280     0.0280    -0.0000    -0.0000     0.0000 </r>
     <r>    10.9220     0.0271     0.0271     0.0271     0.0000     0.0000    -0.0000 </r>
     <r>    10.9320     0.0261     0.0261     0.0261     0.0000     0.0000    -0.0000 </r>
     <r>    10.9420     0.0249     0.0249     0.0249     0.0000     0.0000    -0.0000 </r>
     <r>    10.9520     0.0236     0.0236     0.0236     0.0000    -0.0000     0.0000 </r>
     <r>    10.9620     0.0221     0.0221     0.0221     0.0000    -0.0000     0.0000 </r>
     <r>    10.9721     0.0205     0.0205     0.0205     0.0000     0.0000     0.0000 </r>
     <r>    10.9821     0.0188     0.0188     0.0188     0.0000     0.0000    -0.0000 </r>
     <r>    10.9921     0.0173     0.0173     0.0173     0.0000    -0.0000     0.0000 </r>
     <r>    11.0021     0.0159     0.0159     0.0159     0.0000     0.0000     0.0000 </r>
     <r>    11.0121     0.0148     0.0148     0.0148     0.0000     0.0000     0.0000 </r>
     <r>    11.0221     0.0142     0.0142     0.0142     0.0000    -0.0000     0.0000 </r>
     <r>    11.0321     0.0142     0.0142     0.0142     0.0000     0.0000     0.0000 </r>
     <r>    11.0421     0.0151     0.0151     0.0151     0.0000     0.0000    -0.0000 </r>
     <r>    11.0521     0.0170     0.0170     0.0170     0.0000     0.0000     0.0000 </r>
     <r>    11.0621     0.0203     0.0203     0.0203     0.0000     0.0000    -0.0000 </r>
     <r>    11.0722     0.0252     0.0252     0.0252     0.0000     0.0000     0.0000 </r>
     <r>    11.0822     0.0320     0.0320     0.0320     0.0000    -0.0000     0.0000 </r>
     <r>    11.0922     0.0411     0.0411     0.0411    -0.0000     0.0000    -0.0000 </r>
     <r>    11.1022     0.0526     0.0526     0.0526    -0.0000    -0.0000    -0.0000 </r>
     <r>    11.1122     0.0670     0.0670     0.0670     0.0000     0.0000     0.0000 </r>
    </set>
   </array>
  </conductivity>
  <dos>
   <i name="efermi">      6.11219054 </i>
   <total>
    <array>
     <dimension dim="1">gridpoints</dimension>
     <dimension dim="2">spin</dimension>
     <field>energy</field>
     <field>total</field>
     <field>integrated</field>
     <set>
      <set comment="spin 1">
       <r>    -7.2347     0.0000     0.0000 </r>
       <r>    -7.1537     0.0000     0.0000 </r>
       <r>    -7.0727     0.0000     0.0000 </r>
       <r>    -6.9917     0.0000     0.0000 </r>
       <r>    -6.9108     0.0000     0.0000 </r>
       <r>    -6.8298     0.0000     0.0000 </r>
       <r>    -6.7488     0.0000     0.0000 </r>
       <r>    -6.6678     0.0000     0.0000 </r>
       <r>    -6.5868     0.0000     0.0000 </r>
       <r>    -6.5059     0.0000     0.0000 </r>
       <r>    -6.4249     0.0000     0.0000 </r>
       <r>    -6.3439     0.0001     0.0000 </r>
       <r>    -6.2629     0.0035     0.0003 </r>
       <r>    -6.1820     0.0280     0.0026 </r>
       <r>    -6.1010     0.1120     0.0116 </r>
       <r>    -6.0200     0.3074     0.0365 </r>
       <r>    -5.9390     0.5708     0.0827 </r>
       <r>    -5.8581     0.7775     0.1457 </r>
       <r>    -5.7771     0.7325     0.2050 </r>
       <r>    -5.6961     0.6023     0.2538 </r>
       <r>    -5.6151     0.7108     0.3113 </r>
       <r>    -5.5341     1.3023     0.4168 </r>
       <r>    -5.4532     1.7703     0.5602 </r>
       <r>    -5.3722     1.5481     0.6855 </r>
       <r>    -5.2912     0.7645     0.7474 </r>
       <r>    -5.2102     0.5655     0.7932 </r>
       <r>    -5.1293     1.1836     0.8891 </r>
       <r>    -5.0483     1.8477     1.0387 </r>
       <r>    -4.9673     1.9538     1.1969 </r>
       <r>    -4.8863     1.9795     1.3572 </r>
       <r>    -4.8053     1.9337     1.5138 </r>
       <r>    -4.7244     1.4314     1.6297 </r>
       <r>    -4.6434     1.3637     1.7401 </r>
       <r>    -4.5624     2.4673     1.9399 </r>
       <r>    -4.4814     2.9604     2.1796 </r>
       <r>    -4.4005     1.5585     2.3058 </r>
       <r>    -4.3195     0.7448     2.3661 </r>
       <r>    -4.2385     1.5310     2.4901 </r>
       <r>    -4.1575     2.3292     2.6787 </r>
       <r>    -4.0766     3.2684     2.9434 </r>
       <r>    -3.9956     3.6183     3.2364 </r>
       <r>    -3.9146     2.9161     3.4725 </r>
       <r>    -3.8336     3.7174     3.7736 </r>
       <r>    -3.7526     4.2589     4.1184 </r>
       <r>    -3.6717     2.9282     4.3556 </r>
       <r>    -3.5907     2.3254     4.5439 </r>
       <r>    -3.5097     2.4313     4.7407 </r>
       <r>    -3.4287     3.3149     5.0092 </r>
       <r>    -3.3478     3.4919     5.2919 </r>
       <r>    -3.2668     1.5376     5.4165 </r>
       <r>    -3.1858     1.1705     5.5112 </r>
       <r>    -3.1048     2.9057     5.7465 </r>
       <r>    -3.0238     3.9390     6.0655 </r>
       <r>    -2.9429     4.3519     6.4179 </r>
       <r>    -2.8619     5.0884     6.8300 </r>
       <r>    -2.7809     3.0647     7.0781 </r>
       <r>    -2.6999     0.9830     7.1577 </r>
       <r>    -2.6190     1.0316     7.2413 </r>
       <r>    -2.5380     1.0810     7.3288 </r>
       <r>    -2.4570     0.4718     7.3670 </r>
       <r>    -2.3760     0.6809     7.4221 </r>
       <r>    -2.2951     1.2003     7.5193 </r>
       <r>    -2.2141     0.8107     7.5850 </r>
       <r>    -2.1331     0.6239     7.6355 </r>
       <r>    -2.0521     0.8342     7.7031 </r>
       <r>    -1.9711     1.4656     7.8217 </r>
       <r>    -1.8902     2.4246     8.0181 </r>
       <r>    -1.8092     2.4255     8.2145 </r>
       <r>    -1.7282     1.5511     8.3401 </r>
       <r>    -1.6472     0.7342     8.3995 </r>
       <r>    -1.5663     0.2497     8.4198 </r>
       <r>    -1.4853     0.4754     8.4583 </r>
       <r>    -1.4043     1.1375     8.5504 </r>
       <r>    -1.3233     0.8757     8.6213 </r>
       <r>    -1.2423     0.2768     8.6437 </r>
       <r>    -1.1614     0.6406     8.6956 </r>
       <r>    -1.0804     2.3979     8.8898 </r>
       <r>    -0.9994     4.8042     9.2788 </r>
       <r>    -0.9184     6.2771     9.7871 </r>
       <r>    -0.8375     6.4705    10.3111 </r>
       <r>    -0.7565     6.5892    10.8446 </r>
       <r>    -0.6755     6.3697    11.3604 </r>
       <r>    -0.5945     3.5914    11.6512 </r>
       <r>    -0.5136     0.9898    11.7314 </r>
       <r>    -0.4326     0.7030    11.7883 </r>
       <r>    -0.3516     1.5400    11.9130 </r>
       <r>    -0.2706     2.6041    12.1239 </r>
       <r>    -0.1896     4.2040    12.4643 </r>
       <r>    -0.1087     3.5003    12.7478 </r>
       <r>    -0.0277     1.0658    12.8341 </r>
       <r>     0.0533     0.1769    12.8484 </r>
       <r>     0.1343     0.5308    12.8914 </r>
       <r>     0.2152     1.2310    12.9911 </r>
       <r>     0.2962     1.3769    13.1026 </r>
       <r>     0.3772     1.8409    13.2516 </r>
       <r>     0.4582     2.0326    13.4162 </r>
       <r>     0.5392     2.6135    13.6279 </r>
       <r>     0.6201     3.3616    13.9001 </r>
       <r>     0.7011     2.2331    14.0809 </r>
       <r>     0.7821     0.8299    14.1481 </r>
       <r>     0.8631     0.3758    14.1786 </r>
       <r>     0.9440     0.1733    14.1926 </r>
       <r>     1.0250     0.1446    14.2043 </r>
       <r>     1.1060     0.6754    14.2590 </r>
       <r>     1.1870     1.1938    14.3557 </r>
       <r>     1.2679     0.7860    14.4193 </r>
       <r>     1.3489     1.2044    14.5168 </r>
       <r>     1.4299     2.8045    14.7439 </r>
       <r>     1.5109     2.7923    14.9700 </r>
       <r>     1.5919     2.6885    15.1877 </r>
       <r>     1.6728     3.1843    15.4456 </r>
       <r>     1.7538     2.5406    15.6513 </r>
       <r>     1.8348     3.3368    15.9215 </r>
       <r>     1.9158     5.7268    16.3853 </r>
       <r>     1.9967     5.6293    16.8411 </r>
       <r>     2.0777     4.2661    17.1866 </r>
       <r>     2.1587     4.5349    17.5538 </r>
       <r>     2.2397     6.0106    18.0405 </r>
       <r>     2.3207     5.1583    18.4582 </r>
       <r>     2.4016     2.6727    18.6747 </r>
       <r>     2.4826     1.4666    18.7934 </r>
       <r>     2.5636     1.9244    18.9493 </r>
       <r>     2.6446     4.7891    19.3371 </r>
       <r>     2.7255     7.2708    19.9258 </r>
       <r>     2.8065     6.6470    20.4641 </r>
       <r>     2.8875     4.5323    20.8311 </r>
       <r>     2.9685     4.0009    21.1551 </r>
       <r>     3.0494     5.7525    21.6209 </r>
       <r>     3.1304     6.9165    22.1810 </r>
       <r>     3.2114     6.3837    22.6979 </r>
       <r>     3.2924     5.6092    23.1521 </r>
       <r>     3.3734     5.2177    23.5747 </r>
       <r>     3.4543     6.3524    24.0891 </r>
       <r>     3.5353     5.5631    24.5395 </r>
       <r>     3.6163     4.1340    24.8743 </r>
       <r>     3.6973     4.4318    25.2332 </r>
       <r>     3.7782     6.2114    25.7362 </r>
       <r>     3.8592     6.8638    26.2920 </r>
       <r>     3.9402     5.4838    26.7360 </r>
       <r>     4.0212     3.9254    27.0539 </r>
       <r>     4.1022     4.4339    27.4129 </r>
       <r>     4.1831     6.1197    27.9085 </r>
       <r>     4.2641     5.9716    28.3921 </r>
       <r>     4.3451     3.1495    28.6471 </r>
       <r>     4.4261     2.4052    28.8419 </r>
       <r>     4.5070     5.0098    29.2475 </r>
       <r>     4.5880     6.8999    29.8063 </r>
       <r>     4.6690     4.9935    30.2106 </r>
       <r>     4.7500     2.7778    30.4356 </r>
       <r>     4.8309     2.0645    30.6028 </r>
       <r>     4.9119     2.2002    30.7809 </r>
       <r>     4.9929     1.9097    30.9356 </r>
       <r>     5.0739     1.7250    31.0753 </r>
       <r>     5.1549     2.7105    31.2947 </r>
       <r>     5.2358     2.4014    31.4892 </r>
       <r>     5.3168     1.5160    31.6120 </r>
       <r>     5.3978     1.5753    31.7395 </r>
       <r>     5.4788     1.1601    31.8335 </r>
       <r>     5.5597     0.3343    31.8605 </r>
       <r>     5.6407     0.2173    31.8781 </r>
       <r>     5.7217     0.5629    31.9237 </r>
       <r>     5.8027     0.5765    31.9704 </r>
       <r>     5.8837     0.2766    31.9928 </r>
       <r>     5.9646     0.0787    31.9992 </r>
       <r>     6.0456     0.0099    32.0000 </r>
       <r>     6.1266     0.0004    32.0000 </r>
       <r>     6.2076     0.0018    32.0001 </r>
       <r>     6.2885     0.0325    32.0028 </r>
       <r>     6.3695     0.1841    32.0177 </r>
       <r>     6.4505     0.3950    32.0497 </r>
       <r>     6.5315     0.5778    32.0965 </r>
       <r>     6.6124     0.6136    32.1462 </r>
       <r>     6.6934     0.4345    32.1813 </r>
       <r>     6.7744     0.6841    32.2367 </r>
       <r>     6.8554     1.1877    32.3329 </r>
       <r>     6.9364     1.7297    32.4730 </r>
       <r>     7.0173     1.9922    32.6343 </r>
       <r>     7.0983     2.2834    32.8192 </r>
       <r>     7.1793     2.7599    33.0427 </r>
       <r>     7.2603     3.1691    33.2993 </r>
       <r>     7.3412     2.3549    33.4900 </r>
       <r>     7.4222     1.5472    33.6153 </r>
       <r>     7.5032     2.4416    33.8130 </r>
       <r>     7.5842     4.8645    34.2069 </r>
       <r>     7.6652     5.4479    34.6481 </r>
       <r>     7.7461     4.5455    35.0162 </r>
       <r>     7.8271     4.0372    35.3431 </r>
       <r>     7.9081     4.0533    35.6713 </r>
       <r>     7.9891     3.7702    35.9766 </r>
       <r>     8.0700     3.6228    36.2700 </r>
       <r>     8.1510     4.1219    36.6038 </r>
       <r>     8.2320     5.0619    37.0137 </r>
       <r>     8.3130     7.0891    37.5877 </r>
       <r>     8.3939     7.7410    38.2146 </r>
       <r>     8.4749     8.4238    38.8967 </r>
       <r>     8.5559     8.1801    39.5591 </r>
       <r>     8.6369     5.4013    39.9965 </r>
       <r>     8.7179     3.2737    40.2616 </r>
       <r>     8.7988     2.4964    40.4638 </r>
       <r>     8.8798     2.8999    40.6986 </r>
       <r>     8.9608     4.6288    41.0734 </r>
       <r>     9.0418     6.6005    41.6079 </r>
       <r>     9.1227     8.1645    42.2690 </r>
       <r>     9.2037     9.2103    43.0149 </r>
       <r>     9.2847     8.6754    43.7174 </r>
       <r>     9.3657     7.6615    44.3378 </r>
       <r>     9.4467     6.7721    44.8862 </r>
       <r>     9.5276     5.0378    45.2941 </r>
       <r>     9.6086     5.3273    45.7255 </r>
       <r>     9.6896     4.1031    46.0578 </r>
       <r>     9.7706     2.5109    46.2611 </r>
       <r>     9.8515     2.6915    46.4790 </r>
       <r>     9.9325     5.6670    46.9379 </r>
       <r>    10.0135     9.0060    47.6672 </r>
       <r>    10.0945     9.8527    48.4651 </r>
       <r>    10.1754     7.2434    49.0516 </r>
       <r>    10.2564     3.9407    49.3707 </r>
       <r>    10.3374     4.0055    49.6951 </r>
       <r>    10.4184     5.6720    50.1544 </r>
       <r>    10.4994     6.7646    50.7022 </r>
       <r>    10.5803     5.6619    51.1606 </r>
       <r>    10.6613     5.5980    51.6140 </r>
       <r>    10.7423     5.1296    52.0293 </r>
       <r>    10.8233     3.6945    52.3285 </r>
       <r>    10.9042     3.3012    52.5958 </r>
       <r>    10.9852     2.3458    52.7858 </r>
       <r>    11.0662     1.1232    52.8767 </r>
       <r>    11.1472     1.7017    53.0145 </r>
       <r>    11.2282     4.6805    53.3936 </r>
       <r>    11.3091     7.7532    54.0214 </r>
       <r>    11.3901     8.0383    54.6723 </r>
       <r>    11.4711     5.9953    55.1578 </r>
       <r>    11.5521     3.9920    55.4811 </r>
       <r>    11.6330     3.6039    55.7729 </r>
       <r>    11.7140     3.9597    56.0935 </r>
       <r>    11.7950     3.7383    56.3962 </r>
       <r>    11.8760     4.6508    56.7729 </r>
       <r>    11.9569     4.9457    57.1733 </r>
       <r>    12.0379     3.4809    57.4552 </r>
       <r>    12.1189     1.5999    57.5848 </r>
       <r>    12.1999     0.7309    57.6440 </r>
       <r>    12.2809     1.1528    57.7373 </r>
       <r>    12.3618     1.2825    57.8412 </r>
       <r>    12.4428     1.2009    57.9384 </r>
       <r>    12.5238     1.7826    58.0828 </r>
       <r>    12.6048     2.1321    58.2554 </r>
       <r>    12.6857     2.4368    58.4527 </r>
       <r>    12.7667     2.2792    58.6373 </r>
       <r>    12.8477     2.0516    58.8034 </r>
       <r>    12.9287     1.9832    58.9640 </r>
       <r>    13.0097     1.1415    59.0565 </r>
       <r>    13.0906     0.5869    59.1040 </r>
       <r>    13.1716     0.8493    59.1728 </r>
       <r>    13.2526     1.5755    59.3003 </r>
       <r>    13.3336     2.1873    59.4775 </r>
       <r>    13.4145     1.5127    59.5999 </r>
       <r>    13.4955     0.7274    59.6588 </r>
       <r>    13.5765     0.3698    59.6888 </r>
       <r>    13.6575     0.3327    59.7157 </r>
       <r>    13.7384     0.4068    59.7487 </r>
       <r>    13.8194     0.5259    59.7913 </r>
       <r>    13.9004     0.6554    59.8443 </r>
       <r>    13.9814     0.3658    59.8739 </r>
       <r>    14.0624     0.0666    59.8793 </r>
       <r>    14.1433     0.0109    59.8802 </r>
       <r>    14.2243     0.0782    59.8866 </r>
       <r>    14.3053     0.2557    59.9073 </r>
       <r>    14.3863     0.2574    59.9281 </r>
       <r>    14.4672     0.0808    59.9347 </r>
       <r>    14.5482     0.0316    59.9372 </r>
       <r>    14.6292     0.1534    59.9496 </r>
       <r>    14.7102     0.2965    59.9736 </r>
       <r>    14.7912     0.1770    59.9880 </r>
       <r>    14.8721     0.0323    59.9906 </r>
       <r>    14.9531     0.0018    59.9907 </r>
       <r>    15.0341     0.0000    59.9907 </r>
       <r>    15.1151     0.0000    59.9907 </r>
       <r>    15.1960     0.0000    59.9907 </r>
       <r>    15.2770     0.0000    59.9907 </r>
       <r>    15.3580     0.0000    59.9907 </r>
       <r>    15.4390     0.0000    59.9907 </r>
       <r>    15.5199     0.0000    59.9907 </r>
       <r>    15.6009     0.0000    59.9907 </r>
       <r>    15.6819     0.0000    59.9907 </r>
       <r>    15.7629     0.0004    59.9908 </r>
       <r>    15.8439     0.0064    59.9913 </r>
       <r>    15.9248     0.0319    59.9939 </r>
       <r>    16.0058     0.0490    59.9978 </r>
       <r>    16.0868     0.0232    59.9997 </r>
       <r>    16.1678     0.0033    60.0000 </r>
       <r>    16.2487     0.0001    60.0000 </r>
       <r>    16.3297     0.0000    60.0000 </r>
       <r>    16.4107     0.0000    60.0000 </r>
       <r>    16.4917     0.0000    60.0000 </r>
       <r>    16.5727     0.0000    60.0000 </r>
       <r>    16.6536     0.0000    60.0000 </r>
       <r>    16.7346     0.0000    60.0000 </r>
       <r>    16.8156     0.0000    60.0000 </r>
       <r>    16.8966     0.0000    60.0000 </r>
       <r>    16.9775     0.0000    60.0000 </r>
       <r>    17.0585     0.0000    60.0000 </r>
      </set>
     </set>
    </array>
   </total>
  </dos>
 </calculation>
 <structure name="finalpos" >
  <crystal>
   <varray name="basis" >
    <v>       5.42999983       0.00000000       0.00000000 </v>
    <v>       0.00000000       5.42999983       0.00000000 </v>
    <v>       0.00000000       0.00000000       5.42999983 </v>
   </varray>
   <i name="volume">    160.10299181 </i>
   <varray name="rec_basis" >
    <v>       0.18416207       0.00000000       0.00000000 </v>
    <v>       0.00000000       0.18416207       0.00000000 </v>
    <v>       0.00000000       0.00000000       0.18416207 </v>
   </varray>
  </crystal>
  <varray name="positions" >
   <v>       0.00000000       0.00000000       0.00000000 </v>
   <v>       0.00000000       0.50000000       0.50000000 </v>
   <v>       0.50000000       0.50000000       0.00000000 </v>
   <v>       0.50000000       0.00000000       0.50000000 </v>
   <v>       0.75000000       0.25000000       0.75000000 </v>
   <v>       0.25000000       0.25000000       0.25000000 </v>
   <v>       0.25000000       0.75000000       0.75000000 </v>
   <v>       0.75000000       0.75000000       0.25000000 </v>
  </varray>
 </structure>
</modeling>
